 Entering Gaussian System, Link 0=g16
 Input=dimer-scan-14-s05.com
 Output=dimer-scan-14-s05.log
 Initial command:
 /hpc/applications/gaussian/g16c/g16/l1.exe "/scratch/users/yunwent/wat-dimer/14-frq/Gau-20623.inp" -scrdir="/scratch/users/yunwent/wat-dimer/14-frq/"
 Entering Link 1 = /hpc/applications/gaussian/g16c/g16/l1.exe PID=     20624.
  
 Copyright (c) 1988-2019, Gaussian, Inc.  All Rights Reserved.
  
 This is part of the Gaussian(R) 16 program.  It is based on
 the Gaussian(R) 09 system (copyright 2009, Gaussian, Inc.),
 the Gaussian(R) 03 system (copyright 2003, Gaussian, Inc.),
 the Gaussian(R) 98 system (copyright 1998, Gaussian, Inc.),
 the Gaussian(R) 94 system (copyright 1995, Gaussian, Inc.),
 the Gaussian 92(TM) system (copyright 1992, Gaussian, Inc.),
 the Gaussian 90(TM) system (copyright 1990, Gaussian, Inc.),
 the Gaussian 88(TM) system (copyright 1988, Gaussian, Inc.),
 the Gaussian 86(TM) system (copyright 1986, Carnegie Mellon
 University), and the Gaussian 82(TM) system (copyright 1983,
 Carnegie Mellon University). Gaussian is a federally registered
 trademark of Gaussian, Inc.
  
 This software contains proprietary and confidential information,
 including trade secrets, belonging to Gaussian, Inc.
  
 This software is provided under written license and may be
 used, copied, transmitted, or stored only in accord with that
 written license.
  
 The following legend is applicable only to US Government
 contracts under FAR:
  
                    RESTRICTED RIGHTS LEGEND
  
 Use, reproduction and disclosure by the US Government is
 subject to restrictions as set forth in subparagraphs (a)
 and (c) of the Commercial Computer Software - Restricted
 Rights clause in FAR 52.227-19.
  
 Gaussian, Inc.
 340 Quinnipiac St., Bldg. 40, Wallingford CT 06492
  
  
 ---------------------------------------------------------------
 Warning -- This program may not be used in any manner that
 competes with the business of Gaussian, Inc. or will provide
 assistance to any competitor of Gaussian, Inc.  The licensee
 of this program is prohibited from giving any competitor of
 Gaussian, Inc. access to this program.  By using this program,
 the user acknowledges that Gaussian, Inc. is engaged in the
 business of creating and licensing software in the field of
 computational chemistry and represents and warrants to the
 licensee that it is not a competitor of Gaussian, Inc. and that
 it will not use this program in any manner prohibited above.
 ---------------------------------------------------------------
  

 Cite this work as:
 Gaussian 16, Revision C.01,
 M. J. Frisch, G. W. Trucks, H. B. Schlegel, G. E. Scuseria, 
 M. A. Robb, J. R. Cheeseman, G. Scalmani, V. Barone, 
 G. A. Petersson, H. Nakatsuji, X. Li, M. Caricato, A. V. Marenich, 
 J. Bloino, B. G. Janesko, R. Gomperts, B. Mennucci, H. P. Hratchian, 
 J. V. Ortiz, A. F. Izmaylov, J. L. Sonnenberg, D. Williams-Young, 
 F. Ding, F. Lipparini, F. Egidi, J. Goings, B. Peng, A. Petrone, 
 T. Henderson, D. Ranasinghe, V. G. Zakrzewski, J. Gao, N. Rega, 
 G. Zheng, W. Liang, M. Hada, M. Ehara, K. Toyota, R. Fukuda, 
 J. Hasegawa, M. Ishida, T. Nakajima, Y. Honda, O. Kitao, H. Nakai, 
 T. Vreven, K. Throssell, J. A. Montgomery, Jr., J. E. Peralta, 
 F. Ogliaro, M. J. Bearpark, J. J. Heyd, E. N. Brothers, K. N. Kudin, 
 V. N. Staroverov, T. A. Keith, R. Kobayashi, J. Normand, 
 K. Raghavachari, A. P. Rendell, J. C. Burant, S. S. Iyengar, 
 J. Tomasi, M. Cossi, J. M. Millam, M. Klene, C. Adamo, R. Cammi, 
 J. W. Ochterski, R. L. Martin, K. Morokuma, O. Farkas, 
 J. B. Foresman, and D. J. Fox, Gaussian, Inc., Wallingford CT, 2019.
 
 ******************************************
 Gaussian 16:  ES64L-G16RevC.01  3-Jul-2019
                16-May-2021 
 ******************************************
 %chk=dimer-scan-14-s05.chk
 %nprocshared=36
 Will use up to   36 processors via shared memory.
 %mem=80GB
 ------------------------------------------
 # freq rwb97xd/6-311++g(d,p) int=ultrafine
 ------------------------------------------
 1/10=4,30=1,38=1/1,3;
 2/12=2,17=6,18=5,40=1/2;
 3/5=4,6=6,7=1111,11=2,25=1,30=1,71=2,74=-58,75=-5,116=1,140=1/1,2,3;
 4//1;
 5/5=2,38=5,98=1/2;
 8/6=4,10=90,11=11/1;
 11/6=1,8=1,9=11,15=111,16=1/1,2,10;
 10/6=1/2;
 6/7=2,8=2,9=2,10=2,28=1/1;
 7/8=1,10=1,25=1/1,2,3,16;
 1/10=4,30=1/3;
 99//99;
 --------------------
 Energy: -26.09245376
 --------------------
 Symbolic Z-matrix:
 Charge =  0 Multiplicity = 1
 O                     2.14246   0.00465   0.05475 
 H                     2.68072   0.74528  -0.22622 
 H                     2.67998  -0.77213  -0.10296 
 O                    -2.33487  -0.00903  -0.091 
 H                    -2.43443   0.08702   0.85649 
 H                    -1.387    -0.0251   -0.23739 
 

 GradGradGradGradGradGradGradGradGradGradGradGradGradGradGradGradGradGrad
 Berny optimization.
 Initialization pass.
 Trust Radius=3.00D-01 FncErr=1.00D-07 GrdErr=1.00D-07 EigMax=2.50D+02 EigMin=1.00D-04
 Number of steps in this run=      2 maximum allowed number of steps=      2.
 GradGradGradGradGradGradGradGradGradGradGradGradGradGradGradGradGradGrad

                          Input orientation:                          
 ---------------------------------------------------------------------
 Center     Atomic      Atomic             Coordinates (Angstroms)
 Number     Number       Type             X           Y           Z
 ---------------------------------------------------------------------
      1          8           0        2.142461    0.004651    0.054754
      2          1           0        2.680723    0.745278   -0.226217
      3          1           0        2.679982   -0.772134   -0.102956
      4          8           0       -2.334871   -0.009033   -0.090995
      5          1           0       -2.434432    0.087015    0.856490
      6          1           0       -1.386995   -0.025097   -0.237389
 ---------------------------------------------------------------------
                    Distance matrix (angstroms):
                    1          2          3          4          5
     1  O    0.000000
     2  H    0.957705   0.000000
     3  H    0.957704   1.522410   0.000000
     4  O    4.479725   5.073801   5.072595   0.000000
     5  H    4.647313   5.269760   5.274079   0.957531   0.000000
     6  H    3.541651   4.140040   4.137202   0.959249   1.518639
                    6
     6  H    0.000000
 Stoichiometry    H4O2
 Framework group  C1[X(H4O2)]
 Deg. of freedom    12
 Full point group                 C1      NOp   1
 Largest Abelian subgroup         C1      NOp   1
 Largest concise Abelian subgroup C1      NOp   1
                         Standard orientation:                         
 ---------------------------------------------------------------------
 Center     Atomic      Atomic             Coordinates (Angstroms)
 Number     Number       Type             X           Y           Z
 ---------------------------------------------------------------------
      1          8           0       -2.142461   -0.004651    0.054754
      2          1           0       -2.680723   -0.745278   -0.226217
      3          1           0       -2.679982    0.772134   -0.102956
      4          8           0        2.334871    0.009033   -0.090995
      5          1           0        2.434432   -0.087015    0.856490
      6          1           0        1.386995    0.025097   -0.237389
 ---------------------------------------------------------------------
 Rotational constants (GHZ):         232.9578086           2.7468972           2.7443427
 Standard basis: 6-311++G(d,p) (5D, 7F)
 There are    74 symmetry adapted cartesian basis functions of A   symmetry.
 There are    72 symmetry adapted basis functions of A   symmetry.
    72 basis functions,   108 primitive gaussians,    74 cartesian basis functions
    10 alpha electrons       10 beta electrons
       nuclear repulsion energy        30.1630682972 Hartrees.
 NAtoms=    6 NActive=    6 NUniq=    6 SFac= 1.00D+00 NAtFMM=   60 NAOKFM=F Big=F
 Integral buffers will be    131072 words long.
 Raffenetti 2 integral format.
 Two-electron integral symmetry is turned on.
 Nuclear repulsion after empirical dispersion term =       30.1628708737 Hartrees.
 One-electron integrals computed using PRISM.
 NBasis=    72 RedAO= T EigKep=  2.86D-03  NBF=    72
 NBsUse=    72 1.00D-06 EigRej= -1.00D+00 NBFU=    72
 ExpMin= 3.60D-02 ExpMax= 8.59D+03 ExpMxC= 1.30D+03 IAcc=3 IRadAn=         5 AccDes= 0.00D+00
 Harris functional with IExCor= 4639 and IRadAn=       5 diagonalized for initial guess.
 HarFok:  IExCor= 4639 AccDes= 0.00D+00 IRadAn=         5 IDoV= 1 UseB2=F ITyADJ=14
 ICtDFT=  3500011 ScaDFX=  1.000000  1.000000  1.000000  1.000000
 FoFCou: FMM=F IPFlag=           0 FMFlag=      100000 FMFlg1=           0
         NFxFlg=           0 DoJE=T BraDBF=F KetDBF=T FulRan=T
         wScrn=  0.000000 ICntrl=       500 IOpCl=  0 I1Cent=   200000004 NGrid=           0
         NMat0=    1 NMatS0=      1 NMatT0=    0 NMatD0=    1 NMtDS0=    0 NMtDT0=    0
 Petite list used in FoFCou.
 Keep R1 ints in memory in canonical form, NReq=39419492.
 Requested convergence on RMS density matrix=1.00D-08 within 128 cycles.
 Requested convergence on MAX density matrix=1.00D-06.
 Requested convergence on             energy=1.00D-06.
 No special actions if energy rises.
 SCF Done:  E(RwB97XD) =  -152.867458595     A.U. after   11 cycles
            NFock= 11  Conv=0.22D-08     -V/T= 2.0029
 DoSCS=F DFT=T ScalE2(SS,OS)=  1.000000  1.000000
 Range of M.O.s used for correlation:     1    72
 NBasis=    72 NAE=    10 NBE=    10 NFC=     0 NFV=     0
 NROrb=     72 NOA=    10 NOB=    10 NVA=    62 NVB=    62
 Symmetrizing basis deriv contribution to polar:
 IMax=3 JMax=2 DiffMx= 0.00D+00
 G2DrvN: will do     7 centers at a time, making    1 passes.
 Calling FoFCou, ICntrl=  3107 FMM=F I1Cent=   0 AccDes= 0.00D+00.
 End of G2Drv F.D. properties file   721 does not exist.
 End of G2Drv F.D. properties file   722 does not exist.
 End of G2Drv F.D. properties file   788 does not exist.
          IDoAtm=111111
          Differentiating once with respect to electric field.
                with respect to dipole field.
          Differentiating once with respect to nuclear coordinates.
 Keep R1 ints in memory in canonical form, NReq=39298839.
          There are    21 degrees of freedom in the 1st order CPHF.  IDoFFX=6 NUNeed=     3.
     18 vectors produced by pass  0 Test12= 2.95D-15 4.76D-09 XBig12= 3.85D+00 7.17D-01.
 AX will form    18 AO Fock derivatives at one time.
     18 vectors produced by pass  1 Test12= 2.95D-15 4.76D-09 XBig12= 3.78D-01 1.78D-01.
     18 vectors produced by pass  2 Test12= 2.95D-15 4.76D-09 XBig12= 1.13D-02 3.15D-02.
     18 vectors produced by pass  3 Test12= 2.95D-15 4.76D-09 XBig12= 1.07D-04 2.97D-03.
     18 vectors produced by pass  4 Test12= 2.95D-15 4.76D-09 XBig12= 6.05D-07 1.99D-04.
     15 vectors produced by pass  5 Test12= 2.95D-15 4.76D-09 XBig12= 3.15D-09 1.30D-05.
     10 vectors produced by pass  6 Test12= 2.95D-15 4.76D-09 XBig12= 1.65D-11 7.78D-07.
      3 vectors produced by pass  7 Test12= 2.95D-15 4.76D-09 XBig12= 7.63D-14 5.43D-08.
 InvSVY:  IOpt=1 It=  1 EMax= 2.44D-15
 Solved reduced A of dimension   118 with    21 vectors.
 Isotropic polarizability for W=    0.000000       14.46 Bohr**3.
 End of Minotr F.D. properties file   721 does not exist.
 End of Minotr F.D. properties file   722 does not exist.
 End of Minotr F.D. properties file   788 does not exist.

 **********************************************************************

            Population analysis using the SCF Density.

 **********************************************************************

 Orbital symmetries:
       Occupied  (A) (A) (A) (A) (A) (A) (A) (A) (A) (A)
       Virtual   (A) (A) (A) (A) (A) (A) (A) (A) (A) (A) (A) (A)
                 (A) (A) (A) (A) (A) (A) (A) (A) (A) (A) (A) (A)
                 (A) (A) (A) (A) (A) (A) (A) (A) (A) (A) (A) (A)
                 (A) (A) (A) (A) (A) (A) (A) (A) (A) (A) (A) (A)
                 (A) (A) (A) (A) (A) (A) (A) (A) (A) (A) (A) (A)
                 (A) (A)
 The electronic state is 1-A.
 Alpha  occ. eigenvalues --  -19.26363 -19.24116  -1.13199  -1.10948  -0.63954
 Alpha  occ. eigenvalues --   -0.61593  -0.49280  -0.47001  -0.41747  -0.39514
 Alpha virt. eigenvalues --    0.03172   0.05897   0.07035   0.09747   0.20058
 Alpha virt. eigenvalues --    0.20854   0.21327   0.22063   0.23717   0.24690
 Alpha virt. eigenvalues --    0.25519   0.28298   0.28976   0.30294   0.31695
 Alpha virt. eigenvalues --    0.38550   0.57572   0.60790   0.62279   0.65240
 Alpha virt. eigenvalues --    1.04129   1.06800   1.07486   1.09678   1.09805
 Alpha virt. eigenvalues --    1.11051   1.30657   1.32722   1.33545   1.35192
 Alpha virt. eigenvalues --    1.45567   1.47942   1.54555   1.55957   1.73991
 Alpha virt. eigenvalues --    1.76886   2.07290   2.09836   2.21239   2.23512
 Alpha virt. eigenvalues --    2.48391   2.51222   2.65071   2.69086   3.17117
 Alpha virt. eigenvalues --    3.19599   3.22249   3.24298   3.39107   3.41327
 Alpha virt. eigenvalues --    3.76252   3.78001   3.97583   4.00684   5.03884
 Alpha virt. eigenvalues --    5.05309   5.42108   5.45628   5.73013   5.74852
 Alpha virt. eigenvalues --   49.99422  50.01751
          Condensed to atoms (all electrons):
               1          2          3          4          5          6
     1  O    7.874039   0.327401   0.327441   0.001113  -0.000159  -0.001113
     2  H    0.327401   0.434203  -0.025480  -0.000000   0.000053  -0.000032
     3  H    0.327441  -0.025480   0.434180  -0.000003   0.000054  -0.000040
     4  O    0.001113  -0.000000  -0.000003   7.858233   0.320657   0.342146
     5  H   -0.000159   0.000053   0.000054   0.320657   0.450011  -0.028684
     6  H   -0.001113  -0.000032  -0.000040   0.342146  -0.028684   0.422626
 Mulliken charges:
               1
     1  O   -0.528723
     2  H    0.263856
     3  H    0.263847
     4  O   -0.522146
     5  H    0.258069
     6  H    0.265097
 Sum of Mulliken charges =  -0.00000
 Mulliken charges with hydrogens summed into heavy atoms:
               1
     1  O   -0.001020
     4  O    0.001020
 APT charges:
               1
     1  O   -0.571723
     2  H    0.286071
     3  H    0.285974
     4  O   -0.573666
     5  H    0.280020
     6  H    0.293323
 Sum of APT charges =  -0.00000
 APT charges with hydrogens summed into heavy atoms:
               1
     1  O    0.000322
     4  O   -0.000322
 Electronic spatial extent (au):  <R**2>=            399.8749
 Charge=             -0.0000 electrons
 Dipole moment (field-independent basis, Debye):
    X=             -3.7005    Y=             -0.0808    Z=              0.6670  Tot=              3.7610
 Quadrupole moment (field-independent basis, Debye-Ang):
   XX=            -10.1956   YY=            -12.0363   ZZ=            -12.9319
   XY=             -0.6311   XZ=              6.6943   YZ=              0.0250
 Traceless Quadrupole moment (field-independent basis, Debye-Ang):
   XX=              1.5257   YY=             -0.3150   ZZ=             -1.2106
   XY=             -0.6311   XZ=              6.6943   YZ=              0.0250
 Octapole moment (field-independent basis, Debye-Ang**2):
  XXX=            -51.6132  YYY=              0.0241  ZZZ=              1.3881  XYY=             -9.1664
  XXY=             -0.7326  XXZ=              5.9738  XZZ=              4.1284  YZZ=             -0.1663
  YYZ=             -0.1585  XYZ=             -1.1991
 Hexadecapole moment (field-independent basis, Debye-Ang**3):
 XXXX=           -367.6160 YYYY=            -13.5917 ZZZZ=            -14.0777 XXXY=             -4.8734
 XXXZ=             51.6818 YYYX=             -0.6353 YYYZ=              0.1379 ZZZX=              6.7965
 ZZZY=             -0.1132 XXYY=            -61.2703 XXZZ=            -69.1349 YYZZ=             -5.0461
 XXYZ=              0.3822 YYXZ=              2.3814 ZZXY=             -0.2360
 N-N= 3.016287087373D+01 E-N=-4.221288558009D+02  KE= 1.524270367438D+02
  Exact polarizability:      14.695      -0.067      14.685       0.662       0.042      13.994
 Approx polarizability:      13.153      -0.105      13.171       1.079       0.022      12.471
 Calling FoFJK, ICntrl=    100127 FMM=F ISym2X=0 I1Cent= 0 IOpClX= 0 NMat=1 NMatS=1 NMatT=0.
 Full mass-weighted force constant matrix:
 Low frequencies ---  -42.1351  -14.8700   -0.0014   -0.0008    0.0005   19.8634
 Low frequencies ---   20.4412   64.3996   77.2487
 ******    1 imaginary frequencies (negative Signs) ****** 
 Diagonal vibrational polarizability:
      473.4181499     732.3472974     677.3286038
 Harmonic frequencies (cm**-1), IR intensities (KM/Mole), Raman scattering
 activities (A**4/AMU), depolarization ratios for plane and unpolarized
 incident light, reduced masses (AMU), force constants (mDyne/A),
 and normal coordinates:
                      1                      2                      3
                      A                      A                      A
 Frequencies --    -42.1241                63.9337                76.8856
 Red. masses --      6.0257                 1.0371                 1.0823
 Frc consts  --      0.0063                 0.0025                 0.0038
 IR Inten    --      0.3662                89.3619               155.1250
  Atom  AN      X      Y      Z        X      Y      Z        X      Y      Z
     1   8    -0.40  -0.00   0.00    -0.01  -0.00   0.02     0.04   0.00  -0.06
     2   1    -0.43  -0.01   0.07     0.15   0.11  -0.58    -0.19   0.01   0.35
     3   1    -0.43  -0.01   0.05    -0.03   0.04   0.30    -0.17  -0.01   0.60
     4   8     0.41   0.00  -0.00    -0.00  -0.04  -0.01     0.01  -0.01   0.02
     5   1     0.29  -0.01   0.01     0.10   0.70   0.05    -0.45   0.20   0.09
     6   1     0.43   0.01  -0.12    -0.02  -0.17   0.08     0.08  -0.03  -0.44
                      4                      5                      6
                      A                      A                      A
 Frequencies --     89.0554               137.4509               266.6200
 Red. masses --      1.0663                 1.0948                 1.0661
 Frc consts  --      0.0050                 0.0122                 0.0446
 IR Inten    --     22.9753               269.7899               314.3298
  Atom  AN      X      Y      Z        X      Y      Z        X      Y      Z
     1   8    -0.00  -0.05  -0.00     0.02   0.01  -0.07     0.00  -0.03  -0.00
     2   1    -0.56   0.33   0.05    -0.16  -0.03   0.37    -0.21   0.11   0.02
     3   1     0.57   0.34  -0.04    -0.19  -0.04   0.41     0.21   0.11   0.00
     4   8    -0.00   0.03   0.00    -0.02  -0.00  -0.01    -0.00  -0.05  -0.01
     5   1     0.04   0.06   0.00     0.56   0.04  -0.07    -0.00   0.22   0.02
     6   1    -0.01  -0.36  -0.00    -0.11  -0.06   0.55     0.00   0.91   0.09
                      7                      8                      9
                      A                      A                      A
 Frequencies --   1614.2864              1621.3712              3887.6667
 Red. masses --      1.0829                 1.0823                 1.0460
 Frc consts  --      1.6626                 1.6764                 9.3141
 IR Inten    --     66.2070                76.1107                21.2923
  Atom  AN      X      Y      Z        X      Y      Z        X      Y      Z
     1   8    -0.07   0.00  -0.03     0.00  -0.00   0.00    -0.00   0.00  -0.00
     2   1     0.52  -0.44   0.18    -0.04   0.03  -0.01     0.02   0.02   0.01
     3   1     0.52   0.41   0.24    -0.04  -0.03  -0.02     0.02  -0.03   0.00
     4   8     0.00   0.00  -0.00     0.05   0.00  -0.05    -0.04  -0.00   0.03
     5   1    -0.05  -0.00   0.01    -0.69  -0.01   0.07    -0.10   0.06  -0.61
     6   1    -0.01  -0.01   0.05    -0.11  -0.07   0.70     0.77  -0.02   0.16
                     10                     11                     12
                      A                      A                      A
 Frequencies --   3898.7032              3995.2506              4006.4431
 Red. masses --      1.0451                 1.0817                 1.0826
 Frc consts  --      9.3595                10.1733                10.2386
 IR Inten    --     14.9510                68.4405                69.2645
  Atom  AN      X      Y      Z        X      Y      Z        X      Y      Z
     1   8     0.05  -0.00   0.02     0.00   0.00   0.00     0.00  -0.07  -0.01
     2   1    -0.37  -0.57  -0.20    -0.00  -0.00  -0.00     0.40   0.54   0.21
     3   1    -0.36   0.59  -0.10    -0.00   0.00  -0.00    -0.40   0.57  -0.12
     4   8    -0.00  -0.00   0.00    -0.04   0.01  -0.05    -0.00  -0.00  -0.00
     5   1    -0.00   0.00  -0.03     0.09  -0.08   0.78     0.00   0.00   0.00
     6   1     0.03  -0.00   0.01     0.61  -0.01   0.09     0.00   0.00   0.00

 -------------------
 - Thermochemistry -
 -------------------
 Temperature   298.150 Kelvin.  Pressure   1.00000 Atm.
 Atom     1 has atomic number  8 and mass  15.99491
 Atom     2 has atomic number  1 and mass   1.00783
 Atom     3 has atomic number  1 and mass   1.00783
 Atom     4 has atomic number  8 and mass  15.99491
 Atom     5 has atomic number  1 and mass   1.00783
 Atom     6 has atomic number  1 and mass   1.00783
 Molecular mass:    36.02113 amu.
 Principal axes and moments of inertia in atomic units:
                           1         2         3
     Eigenvalues --     7.74707 657.01083 657.62239
           X            0.99990  -0.00174   0.01427
           Y            0.00135   0.99961   0.02779
           Z           -0.01431  -0.02777   0.99951
 This molecule is an asymmetric top.
 Rotational symmetry number  1.
 Rotational temperatures (Kelvin)     11.18021     0.13183     0.13171
 Rotational constants (GHZ):         232.95781     2.74690     2.74434
    1 imaginary frequencies ignored.
 Zero-point vibrational energy     117579.0 (Joules/Mol)
                                   28.10205 (Kcal/Mol)
 Warning -- explicit consideration of   5 degrees of freedom as
           vibrations may cause significant error
 Vibrational temperatures:     91.99   110.62   128.13   197.76   383.61
          (Kelvin)           2322.60  2332.79  5593.49  5609.36  5748.27
                             5764.38
 
 Zero-point correction=                           0.044783 (Hartree/Particle)
 Thermal correction to Energy=                    0.051093
 Thermal correction to Enthalpy=                  0.052037
 Thermal correction to Gibbs Free Energy=         0.015994
 Sum of electronic and zero-point Energies=           -152.822675
 Sum of electronic and thermal Energies=              -152.816366
 Sum of electronic and thermal Enthalpies=            -152.815422
 Sum of electronic and thermal Free Energies=         -152.851464
 
                     E (Thermal)             CV                S
                      KCal/Mol        Cal/Mol-Kelvin    Cal/Mol-Kelvin
 Total                   32.061             15.604             75.858
 Electronic               0.000              0.000              0.000
 Translational            0.889              2.981             36.674
 Rotational               0.889              2.981             22.730
 Vibrational             30.284              9.642             16.453
 Vibration     1          0.597              1.972              4.332
 Vibration     2          0.599              1.965              3.969
 Vibration     3          0.602              1.957              3.681
 Vibration     4          0.614              1.916              2.839
 Vibration     5          0.672              1.734              1.618
                       Q            Log10(Q)             Ln(Q)
 Total Bot       0.439633D-07         -7.356910        -16.939911
 Total V=0       0.174596D+14         13.242033         30.490909
 Vib (Bot)       0.249811D-18        -18.602389        -42.833583
 Vib (Bot)    1  0.322842D+01          0.508990          1.171994
 Vib (Bot)    2  0.267983D+01          0.428108          0.985755
 Vib (Bot)    3  0.230911D+01          0.363444          0.836861
 Vib (Bot)    4  0.148034D+01          0.170361          0.392272
 Vib (Bot)    5  0.726099D+00         -0.139004         -0.320069
 Vib (V=0)       0.992098D+02          1.996555          4.597237
 Vib (V=0)    1  0.376691D+01          0.575986          1.326256
 Vib (V=0)    2  0.322608D+01          0.508675          1.171268
 Vib (V=0)    3  0.286262D+01          0.456764          1.051738
 Vib (V=0)    4  0.206250D+01          0.314394          0.723919
 Vib (V=0)    5  0.138160D+01          0.140383          0.323243
 Electronic      0.100000D+01          0.000000          0.000000
 Translational   0.849747D+07          6.929290         15.955280
 Rotational      0.207104D+05          4.316189          9.938392
 ***** Axes restored to original set *****
 -------------------------------------------------------------------
 Center     Atomic                   Forces (Hartrees/Bohr)
 Number     Number              X              Y              Z
 -------------------------------------------------------------------
      1        8          -0.001168883   -0.000001559   -0.000035290
      2        1           0.000001877   -0.000003009   -0.000004017
      3        1           0.000006213    0.000000296   -0.000000086
      4        8           0.001163542    0.000001530    0.000026759
      5        1          -0.000001509   -0.000001733    0.000004859
      6        1          -0.000001239    0.000004475    0.000007775
 -------------------------------------------------------------------
 Cartesian Forces:  Max     0.001168883 RMS     0.000388892

 GradGradGradGradGradGradGradGradGradGradGradGradGradGradGradGradGradGrad
 Berny optimization.
 Search for a local minimum.
 Step number   1 out of a maximum of    2
 All quantities printed in internal units (Hartrees-Bohrs-Radians)
 Second derivative matrix not updated -- analytic derivatives used.
 The second derivative matrix:
                          X1        Y1        Z1        X2        Y2
           X1           0.40002
           Y1          -0.01313   0.71307
           Z1          -0.16240  -0.05228   0.07193
           X2          -0.20046  -0.24537   0.10166   0.19000
           Y2          -0.19118  -0.34107   0.10614   0.21878   0.36974
           Z2           0.09736   0.12844  -0.05064  -0.09538  -0.11977
           X3          -0.20004   0.25849   0.06068   0.01042  -0.02749
           Y3           0.20432  -0.37149  -0.05388   0.02678  -0.02876
           Z3           0.06516  -0.07617  -0.02093  -0.00638   0.01363
           X4          -0.00044  -0.00001  -0.00009   0.00005   0.00008
           Y4           0.00002   0.00093  -0.00003   0.00034  -0.00024
           Z4           0.00021  -0.00003   0.00064  -0.00014  -0.00001
           X5           0.00016  -0.00002  -0.00017  -0.00000  -0.00003
           Y5          -0.00001  -0.00034   0.00002  -0.00011   0.00010
           Z5          -0.00015   0.00002  -0.00013   0.00003   0.00001
           X6           0.00076   0.00003   0.00032  -0.00000  -0.00017
           Y6          -0.00001  -0.00111   0.00002  -0.00042   0.00023
           Z6          -0.00018   0.00002  -0.00086   0.00021  -0.00001
                          Z2        X3        Y3        Z3        X4
           Z2           0.04896
           X3          -0.00198   0.18958
           Y3          -0.00866  -0.23121   0.40016
           Z3           0.00161  -0.05877   0.06254   0.01926
           X4           0.00004   0.00005  -0.00008   0.00005   0.57969
           Y4          -0.00001  -0.00036  -0.00024   0.00002  -0.01287
           Z4          -0.00019  -0.00008   0.00002  -0.00019  -0.11935
           X5           0.00003   0.00000   0.00003   0.00002  -0.04835
           Y5           0.00004   0.00011   0.00009  -0.00005   0.00792
           Z5           0.00004   0.00001  -0.00002   0.00005   0.07764
           X6          -0.00006  -0.00001   0.00015  -0.00009  -0.53100
           Y6          -0.00004   0.00045   0.00024   0.00003   0.00496
           Z6           0.00021   0.00013   0.00000   0.00021   0.04171
                          Y4        Z4        X5        Y5        Z5
           Y4           0.00818
           Z4           0.05983   0.59160
           X5           0.00198   0.01899   0.05560
           Y5          -0.00605  -0.05434  -0.00704   0.00584
           Z5          -0.05442  -0.53732  -0.06892   0.05545   0.54731
           X6           0.01090   0.10037  -0.00742  -0.00086  -0.00862
           Y6          -0.00258  -0.00547   0.00508   0.00037  -0.00104
           Z6          -0.00539  -0.05455   0.05005  -0.00112  -0.00994
                          X6        Y6        Z6
           X6           0.53766
           Y6          -0.01005   0.00285
           Z6          -0.09192   0.00649   0.06493
 ITU=  0
     Eigenvalues ---   -0.00042   0.00018   0.00032   0.00044   0.00138
     Eigenvalues ---    0.00404   0.14714   0.15664   0.81330   0.88533
     Eigenvalues ---    1.05446   1.10987
 Eigenvalue     1 is  -4.23D-04 should be greater than     0.000000 Eigenvector:
                          X6        X4        X1        X3        X2
   1                    0.45532   0.43436  -0.41918  -0.40131  -0.40053
                          X5        Z6        Z5        Z2        Z3
   1                    0.30359   0.10548  -0.03651   0.02512   0.02362
 Quadratic step=2.362D+00 exceeds max=3.000D-01 adjusted using Lamda=-2.992D-03.
 Angle between NR and scaled steps=   8.61 degrees.
 Angle between quadratic step and forces=  50.29 degrees.
 Linear search not attempted -- first point.
 B after Tr=    -0.001723   -0.001194   -0.013202
         Rot=    1.000000    0.000012   -0.000647    0.000042 Ang=   0.07 deg.
 Variable       Old X    -DE/DX   Delta X   Delta X   Delta X     New X
                                 (Linear)    (Quad)   (Total)
    X1        4.04866  -0.00117   0.00000  -0.13810  -0.13974   3.90893
    Y1        0.00879  -0.00000   0.00000  -0.00335  -0.00487   0.00392
    Z1        0.10347  -0.00004   0.00000  -0.03969  -0.05796   0.04551
    X2        5.06583   0.00000   0.00000  -0.09987  -0.10197   4.96386
    Y2        1.40837  -0.00000   0.00000   0.00228   0.00066   1.40903
    Z2       -0.42749  -0.00000   0.00000   0.04624   0.02657  -0.40091
    X3        5.06443   0.00001   0.00000  -0.09947  -0.10151   4.96292
    Y3       -1.45912   0.00000   0.00000   0.00512   0.00351  -1.45561
    Z3       -0.19456  -0.00000   0.00000   0.04636   0.02676  -0.16780
    X4       -4.41227   0.00116   0.00000   0.13284   0.13089  -4.28137
    Y4       -0.01707   0.00000   0.00000  -0.00068  -0.00152  -0.01859
    Z4       -0.17196   0.00003   0.00000  -0.00544  -0.01310  -0.18505
    X5       -4.60041  -0.00000   0.00000   0.07381   0.07418  -4.52623
    Y5        0.16443  -0.00000   0.00000  -0.00144  -0.00221   0.16222
    Z5        1.61853   0.00000   0.00000  -0.01167  -0.01901   1.59952
    X6       -2.62104  -0.00000   0.00000   0.14039   0.13814  -2.48290
    Y6       -0.04743   0.00000   0.00000   0.00542   0.00443  -0.04300
    Z6       -0.44860   0.00001   0.00000   0.04673   0.03674  -0.41186
         Item               Value     Threshold  Converged?
 Maximum Force            0.001169     0.000450     NO 
 RMS     Force            0.000389     0.000300     NO 
 Maximum Displacement     0.139739     0.001800     NO 
 RMS     Displacement     0.070189     0.001200     NO 
 Predicted change in Energy=-3.284486D-04
 GradGradGradGradGradGradGradGradGradGradGradGradGradGradGradGradGradGrad


 ----------------------------------------------------------------------

 Electric dipole moment (input orientation):
 (Debye = 10**-18 statcoulomb cm , SI units = C m)
                  (au)            (Debye)         (10**-30 SI)
   Tot        0.147971D+01      0.376104D+01      0.125455D+02
   x          0.145591D+01      0.370054D+01      0.123437D+02
   y          0.317857D-01      0.807911D-01      0.269490D+00
   z          0.262405D+00      0.666968D+00      0.222477D+01

 Dipole polarizability, Alpha (input orientation).
 (esu units = cm**3 , SI units = C**2 m**2 J**-1)
 Alpha(0;0):
               (au)            (10**-24 esu)      (10**-40 SI)
   iso        0.144580D+02      0.214245D+01      0.238380D+01
   aniso      0.134756D+01      0.199688D+00      0.222183D+00
   xx         0.146949D+02      0.217756D+01      0.242286D+01
   yx        -0.666087D-01     -0.987040D-02     -0.109823D-01
   yy         0.146848D+02      0.217607D+01      0.242120D+01
   zx        -0.661661D+00     -0.980480D-01     -0.109093D+00
   zy        -0.418401D-01     -0.620006D-02     -0.689849D-02
   zz         0.139942D+02      0.207373D+01      0.230734D+01

 ----------------------------------------------------------------------

 Dipole orientation:
     8          0.61759757         -0.06611865          4.00208312
     1          1.29566973          1.32606034          4.93879708
     1          1.11771506         -1.54528733          4.91712935
     8         -0.61468718          0.06583965         -4.37215995
     1         -2.41307260          0.21218892         -4.23585993
     1         -0.02359615          0.00928149         -2.65945535

 Electric dipole moment (dipole orientation):
 (Debye = 10**-18 statcoulomb cm , SI units = C m)
                  (au)            (Debye)         (10**-30 SI)
   Tot        0.147971D+01      0.376104D+01      0.125455D+02
   x          0.000000D+00      0.000000D+00      0.000000D+00
   y          0.000000D+00      0.000000D+00      0.000000D+00
   z          0.147971D+01      0.376104D+01      0.125455D+02

 Dipole polarizability, Alpha (dipole orientation).
 (esu units = cm**3 , SI units = C**2 m**2 J**-1)
 Alpha(0;0):
               (au)            (10**-24 esu)      (10**-40 SI)
   iso        0.144580D+02      0.214245D+01      0.238380D+01
   aniso      0.134756D+01      0.199688D+00      0.222183D+00
   xx         0.142469D+02      0.211118D+01      0.234900D+01
   yx         0.549045D-02      0.813601D-03      0.905253D-03
   yy         0.146882D+02      0.217656D+01      0.242175D+01
   zx         0.743892D+00      0.110233D+00      0.122651D+00
   zy        -0.543397D-01     -0.805231D-02     -0.895941D-02
   zz         0.144388D+02      0.213961D+01      0.238064D+01

 ----------------------------------------------------------------------
 Unable to Open any file for archive entry.
 1\1\GINC-B001\Freq\RwB97XD\6-311++G(d,p)\H4O2\YUNWENT\16-May-2021\0\\#
  freq rwb97xd/6-311++g(d,p) int=ultrafine\\Energy: -26.09245376\\0,1\O
 ,2.142461,0.004651,0.054754\H,2.680723,0.745278,-0.226217\H,2.679982,-
 0.772134,-0.102956\O,-2.334871,-0.009033,-0.090995\H,-2.434432,0.08701
 5,0.85649\H,-1.386995,-0.025097,-0.237389\\Version=ES64L-G16RevC.01\St
 ate=1-A\HF=-152.8674586\RMSD=2.170e-09\RMSF=3.889e-04\ZeroPoint=0.0447
 835\Thermal=0.0510926\ETot=-152.816366\HTot=-152.8154218\GTot=-152.851
 4642\Dipole=1.4559065,0.0317857,0.2624053\DipoleDeriv=-0.4585274,-0.01
 04733,-0.1288302,-0.0113692,-0.545839,-0.013403,-0.1385165,-0.0134685,
 -0.710802,0.2229162,-0.0705243,0.0710124,-0.0292529,0.2806656,0.022112
 9,0.071571,0.0384952,0.3546325,0.2229881,0.081113,0.0586742,0.0405138,
 0.2725903,-0.0088268,0.0658557,-0.0251441,0.3623431,-0.4857721,0.00797
 91,0.0827405,0.0078533,-0.770642,0.0312069,0.081788,0.0311582,-0.46458
 45,0.297907,-0.0067402,-0.0676935,-0.0019628,0.3815363,-0.0225349,-0.0
 208826,-0.0225333,0.1606173,0.2004882,-0.0013543,-0.0159033,-0.0057823
 ,0.3816886,-0.008555,-0.0598156,-0.0085075,0.2977936\Polar=14.6948887,
 -0.0666087,14.6848193,-0.6616606,-0.0418401,13.9942211\Quadrupole=1.13
 42888,-0.2342233,-0.9000655,-0.4691704,-4.9770291,-0.0185946\PG=C01 [X
 (H4O2)]\NImag=1\\0.40001814,-0.01313154,0.71307392,-0.16239994,-0.0522
 7911,0.07193085,-0.20046428,-0.24536623,0.10166341,0.19000240,-0.19117
 909,-0.34106612,0.10614217,0.21877754,0.36974071,0.09735535,0.12843829
 ,-0.05064072,-0.09538048,-0.11976660,0.04895964,-0.20004469,0.25849144
 ,0.06068093,0.01041542,-0.02749073,-0.00197931,0.18958471,0.20431897,-
 0.37148609,-0.05387839,0.02678010,-0.02875545,-0.00866216,-0.23120612,
 0.40015808,0.06516221,-0.07617498,-0.02093452,-0.00638118,0.01363044,0
 .00161320,-0.05876604,0.06253782,0.01925503,-0.00043663,-0.00000619,-0
 .00009445,0.00005036,0.00008467,0.00003877,0.00004905,-0.00007757,0.00
 005135,0.57968559,0.00001669,0.00092841,-0.00002775,0.00033885,-0.0002
 4432,-0.00000977,-0.00035568,-0.00023851,0.00002120,-0.01287250,0.0081
 8308,0.00021308,-0.00002888,0.00064242,-0.00014142,-0.00000895,-0.0001
 8538,-0.00008112,0.00002089,-0.00019173,-0.11935358,0.05982862,0.59160
 284,0.00016447,-0.00002006,-0.00017256,-0.00000074,-0.00002590,0.00002
 654,0.00000367,0.00003194,0.00002126,-0.04835016,0.00197566,0.01899269
 ,0.05559781,-0.00001350,-0.00034083,0.00002036,-0.00011181,0.00009759,
 0.00003572,0.00011364,0.00008643,-0.00004521,0.00791542,-0.00605308,-0
 .05434179,-0.00704072,0.00583940,-0.00014695,0.00002170,-0.00013315,0.
 00003411,0.00000849,0.00003874,0.00001234,-0.00001901,0.00004774,0.077
 64327,-0.05442469,-0.53731958,-0.06892215,0.05545381,0.54730846,0.0007
 6298,0.00003259,0.00032261,-0.00000316,-0.00016650,-0.00006087,-0.0000
 0817,0.00015268,-0.00008760,-0.53099821,0.01089699,0.10037035,-0.00741
 505,-0.00086303,-0.00862062,0.53766161,-0.00001152,-0.00110930,0.00002
 272,-0.00041845,0.00022759,-0.00003547,0.00044744,0.00023553,0.0000307
 2,0.00495617,-0.00257558,-0.00546989,0.00507909,0.00037049,-0.00104030
 ,-0.01005274,0.00285127,-0.00018375,0.00002298,-0.00086489,0.00020556,
 -0.00000555,0.00021452,0.00013320,0.00000086,0.00021030,0.04171464,-0.
 00538762,-0.05454857,0.05005422,-0.00112289,-0.00994222,-0.09192387,0.
 00649222,0.06493087\\0.00116888,0.00000156,0.00003529,-0.00000188,0.00
 000301,0.00000402,-0.00000621,-0.00000030,0.00000009,-0.00116354,-0.00
 000153,-0.00002676,0.00000151,0.00000173,-0.00000486,0.00000124,-0.000
 00447,-0.00000777\\\@
 The archive entry for this job was punched.


 HEAVEN'S NET CASTS WIDE.
 THOUGH ITS MESHES ARE COARSE, NOTHING SLIPS THROUGH.

                                          -- LAO-TSU
 Job cpu time:       0 days  0 hours  2 minutes 59.9 seconds.
 Elapsed time:       0 days  0 hours  0 minutes  5.9 seconds.
 File lengths (MBytes):  RWF=      7 Int=      0 D2E=      0 Chk=      1 Scr=      1
 Normal termination of Gaussian 16 at Sun May 16 12:48:23 2021.
