Energy: -26.09245376                                                    
Freq      RwB97XD                                                     6-311++G(d,p)       
Number of atoms                            I                6
Info1-9                                    I   N=           9
          17          16           0           0           0         100
           6          18       -5802
Full Title                                 C   N=           2
Energy: -26.09245376    
Route                                      C   N=           4
# freq rwb97xd/6-311++g(d,p) int=ultrafine      
Charge                                     I                0
Multiplicity                               I                1
Number of electrons                        I               20
Number of alpha electrons                  I               10
Number of beta electrons                   I               10
Number of basis functions                  I               72
Number of independent functions            I               72
Number of point charges in /Mol/           I                0
Number of translation vectors              I                0
Atomic numbers                             I   N=           6
           8           1           1           8           1           1
Nuclear charges                            R   N=           6
  8.00000000E+00  1.00000000E+00  1.00000000E+00  8.00000000E+00  1.00000000E+00
  1.00000000E+00
Current cartesian coordinates              R   N=          18
 -6.65843120E+00  4.10049982E-03  5.28528051E-03 -7.76133958E+00 -1.07073607E+00
  9.55681461E-01 -7.75351618E+00  1.04578743E+00 -9.90020241E-01  7.09824209E+00
 -8.31835493E-03 -8.19602566E-03  6.06706386E+00  1.02332657E+00  1.06315019E+00
  5.92930478E+00 -9.64635083E-01 -1.00552544E+00
Number of symbols in /Mol/                 I                0
Int Atom Types                             I   N=           6
           0           0           0           0           0           0
Force Field                                I                0
Atom Types                                 C   N=           6
                                                            
            
MM charges                                 R   N=           6
  0.00000000E+00  0.00000000E+00  0.00000000E+00  0.00000000E+00  0.00000000E+00
  0.00000000E+00
Integer atomic weights                     I   N=           6
          16           1           1          16           1           1
Real atomic weights                        R   N=           6
  1.59949146E+01  1.00782504E+00  1.00782504E+00  1.59949146E+01  1.00782504E+00
  1.00782504E+00
Atom fragment info                         I   N=           6
           0           0           0           0           0           0
Atom residue num                           I   N=           6
           0           0           0           0           0           0
Nuclear spins                              I   N=           6
           0           1           1           0           1           1
Nuclear ZEff                               R   N=           6
 -5.60000000E+00 -1.00000000E+00 -1.00000000E+00 -5.60000000E+00 -1.00000000E+00
 -1.00000000E+00
Nuclear ZNuc                               R   N=           6
  8.00000000E+00  1.00000000E+00  1.00000000E+00  8.00000000E+00  1.00000000E+00
  1.00000000E+00
Nuclear QMom                               R   N=           6
  0.00000000E+00  0.00000000E+00  0.00000000E+00  0.00000000E+00  0.00000000E+00
  0.00000000E+00
Nuclear GFac                               R   N=           6
  0.00000000E+00  2.79284600E+00  2.79284600E+00  0.00000000E+00  2.79284600E+00
  2.79284600E+00
MicOpt                                     I   N=           6
          -1          -1          -1          -1          -1          -1
Number of residues                         I                0
Number of secondary structures             I                0
SymInf integers                            I   N=          26
           1           1           1           1           1           0
           0           0           0           0           0           0
           0           0           0           0           0           0
           0           0           0           0           0           0
           0           0
RotTr to input orientation                 R   N=          12
 -1.00000000E+00 -3.09187950E-08  0.00000000E+00 -3.09187950E-08  1.00000000E+00
 -0.00000000E+00  0.00000000E+00  0.00000000E+00 -1.00000000E+00 -9.44863061E-08
  1.11022302E-17 -2.83458919E-07
Number of contracted shells                I               32
Number of primitive shells                 I               54
Pure/Cartesian d shells                    I                0
Pure/Cartesian f shells                    I                0
Highest angular momentum                   I                2
Largest degree of contraction              I                6
Shell types                                I   N=          32
           0          -1          -1          -1          -1          -2
           0           0           0           0           1           0
           0           0           0           1           0          -1
          -1          -1          -1          -2           0           0
           0           0           1           0           0           0
           0           1
Number of primitives per shell             I   N=          32
           6           3           1           1           1           1
           3           1           1           1           1           3
           1           1           1           1           6           3
           1           1           1           1           3           1
           1           1           1           3           1           1
           1           1
Shell to atom map                          I   N=          32
           1           1           1           1           1           1
           2           2           2           2           2           3
           3           3           3           3           4           4
           4           4           4           4           5           5
           5           5           5           6           6           6
           6           6
Primitive exponents                        R   N=          54
  8.58850000E+03  1.29723000E+03  2.99296000E+02  8.73771000E+01  2.56789000E+01
  3.74004000E+00  4.21175000E+01  9.62837000E+00  2.85332000E+00  9.05661000E-01
  2.55611000E-01  8.45000000E-02  1.29200000E+00  3.38650000E+01  5.09479000E+00
  1.15879000E+00  3.25840000E-01  1.02741000E-01  3.60000000E-02  7.50000000E-01
  3.38650000E+01  5.09479000E+00  1.15879000E+00  3.25840000E-01  1.02741000E-01
  3.60000000E-02  7.50000000E-01  8.58850000E+03  1.29723000E+03  2.99296000E+02
  8.73771000E+01  2.56789000E+01  3.74004000E+00  4.21175000E+01  9.62837000E+00
  2.85332000E+00  9.05661000E-01  2.55611000E-01  8.45000000E-02  1.29200000E+00
  3.38650000E+01  5.09479000E+00  1.15879000E+00  3.25840000E-01  1.02741000E-01
  3.60000000E-02  7.50000000E-01  3.38650000E+01  5.09479000E+00  1.15879000E+00
  3.25840000E-01  1.02741000E-01  3.60000000E-02  7.50000000E-01
Contraction coefficients                   R   N=          54
  1.89515008E-03  1.43859006E-02  7.07320031E-02  2.40001011E-01  5.94797026E-01
  2.80802012E-01  1.13889012E-01  9.20811101E-01 -3.27447036E-03  1.00000000E+00
  1.00000000E+00  1.00000000E+00  1.00000000E+00  2.54938145E-02  1.90373109E-01
  8.52161486E-01  1.00000000E+00  1.00000000E+00  1.00000000E+00  1.00000000E+00
  2.54938145E-02  1.90373109E-01  8.52161486E-01  1.00000000E+00  1.00000000E+00
  1.00000000E+00  1.00000000E+00  1.89515008E-03  1.43859006E-02  7.07320031E-02
  2.40001011E-01  5.94797026E-01  2.80802012E-01  1.13889012E-01  9.20811101E-01
 -3.27447036E-03  1.00000000E+00  1.00000000E+00  1.00000000E+00  1.00000000E+00
  2.54938145E-02  1.90373109E-01  8.52161486E-01  1.00000000E+00  1.00000000E+00
  1.00000000E+00  1.00000000E+00  2.54938145E-02  1.90373109E-01  8.52161486E-01
  1.00000000E+00  1.00000000E+00  1.00000000E+00  1.00000000E+00
P(S=P) Contraction coefficients            R   N=          54
  0.00000000E+00  0.00000000E+00  0.00000000E+00  0.00000000E+00  0.00000000E+00
  0.00000000E+00  3.65113974E-02  2.37152983E-01  8.19701941E-01  1.00000000E+00
  1.00000000E+00  1.00000000E+00  0.00000000E+00  0.00000000E+00  0.00000000E+00
  0.00000000E+00  0.00000000E+00  0.00000000E+00  0.00000000E+00  0.00000000E+00
  0.00000000E+00  0.00000000E+00  0.00000000E+00  0.00000000E+00  0.00000000E+00
  0.00000000E+00  0.00000000E+00  0.00000000E+00  0.00000000E+00  0.00000000E+00
  0.00000000E+00  0.00000000E+00  0.00000000E+00  3.65113974E-02  2.37152983E-01
  8.19701941E-01  1.00000000E+00  1.00000000E+00  1.00000000E+00  0.00000000E+00
  0.00000000E+00  0.00000000E+00  0.00000000E+00  0.00000000E+00  0.00000000E+00
  0.00000000E+00  0.00000000E+00  0.00000000E+00  0.00000000E+00  0.00000000E+00
  0.00000000E+00  0.00000000E+00  0.00000000E+00  0.00000000E+00
Coordinates of each shell                  R   N=          96
 -6.65843120E+00  4.10049982E-03  5.28528051E-03 -6.65843120E+00  4.10049982E-03
  5.28528051E-03 -6.65843120E+00  4.10049982E-03  5.28528051E-03 -6.65843120E+00
  4.10049982E-03  5.28528051E-03 -6.65843120E+00  4.10049982E-03  5.28528051E-03
 -6.65843120E+00  4.10049982E-03  5.28528051E-03 -7.76133958E+00 -1.07073607E+00
  9.55681461E-01 -7.76133958E+00 -1.07073607E+00  9.55681461E-01 -7.76133958E+00
 -1.07073607E+00  9.55681461E-01 -7.76133958E+00 -1.07073607E+00  9.55681461E-01
 -7.76133958E+00 -1.07073607E+00  9.55681461E-01 -7.75351618E+00  1.04578743E+00
 -9.90020241E-01 -7.75351618E+00  1.04578743E+00 -9.90020241E-01 -7.75351618E+00
  1.04578743E+00 -9.90020241E-01 -7.75351618E+00  1.04578743E+00 -9.90020241E-01
 -7.75351618E+00  1.04578743E+00 -9.90020241E-01  7.09824209E+00 -8.31835493E-03
 -8.19602566E-03  7.09824209E+00 -8.31835493E-03 -8.19602566E-03  7.09824209E+00
 -8.31835493E-03 -8.19602566E-03  7.09824209E+00 -8.31835493E-03 -8.19602566E-03
  7.09824209E+00 -8.31835493E-03 -8.19602566E-03  7.09824209E+00 -8.31835493E-03
 -8.19602566E-03  6.06706386E+00  1.02332657E+00  1.06315019E+00  6.06706386E+00
  1.02332657E+00  1.06315019E+00  6.06706386E+00  1.02332657E+00  1.06315019E+00
  6.06706386E+00  1.02332657E+00  1.06315019E+00  6.06706386E+00  1.02332657E+00
  1.06315019E+00  5.92930478E+00 -9.64635083E-01 -1.00552544E+00  5.92930478E+00
 -9.64635083E-01 -1.00552544E+00  5.92930478E+00 -9.64635083E-01 -1.00552544E+00
  5.92930478E+00 -9.64635083E-01 -1.00552544E+00  5.92930478E+00 -9.64635083E-01
 -1.00552544E+00
Num ILSW                                   I              100
ILSW                                       I   N=         100
           0           0           0           0           2           0
           0           0           0           0        4639          -1
           5           0           0           0           2           0
           0           0           1           0           1           0
           1           0           0           0           0           0
           0           0      100000           0          -1           0
           0           0           0           0           0           0
           0           0           0           1           0           0
           0 -2000000000           1           0           0           0
           0           0         121          52           0           0
           0           0          58           0           0           0
           0           0           0           0           0           1
           0           0           0           0           0           0
           0           0           0           0           0           0
           0           0           0           0           0           0
           0           0           0           0           0           0
           0           0           0           0
Num RLSW                                   I               52
RLSW                                       R   N=          52
  1.00000000E+00  1.00000000E+00  1.00000000E+00  1.00000000E+00  1.00000000E+00
  0.00000000E+00  2.00000000E-01  2.22036000E-01  0.00000000E+00  7.77964000E-01
  0.00000000E+00  2.00000000E-01  0.00000000E+00  0.00000000E+00  1.00000000E+00
  0.00000000E+00  0.00000000E+00  1.00000000E+00  0.00000000E+00  0.00000000E+00
  0.00000000E+00  0.00000000E+00  1.00000000E+00  0.00000000E+00  0.00000000E+00
  0.00000000E+00  0.00000000E+00  1.00000000E+00  0.00000000E+00  0.00000000E+00
  0.00000000E+00  0.00000000E+00  1.00000000E+00  0.00000000E+00  0.00000000E+00
  0.00000000E+00  0.00000000E+00  0.00000000E+00  1.00000000E+00  1.00000000E+00
  0.00000000E+00  1.00000000E+00  0.00000000E+00  0.00000000E+00  0.00000000E+00
  0.00000000E+00  0.00000000E+00  0.00000000E+00  0.00000000E+00  0.00000000E+00
  0.00000000E+00  0.00000000E+00
MxBond                                     I                2
NBond                                      I   N=           6
           2           1           1           2           1           1
IBond                                      I   N=          12
           2           3           1           0           1           0
           5           6           4           0           4           0
RBond                                      R   N=          12
  1.00000000E+00  1.00000000E+00  1.00000000E+00  0.00000000E+00  1.00000000E+00
  0.00000000E+00  1.00000000E+00  1.00000000E+00  1.00000000E+00  0.00000000E+00
  1.00000000E+00  0.00000000E+00
Virial Ratio                               R      2.002825088214583E+00
SCF Energy                                 R     -1.528652697340133E+02
Total Energy                               R     -1.528652697340133E+02
RMS Force                                  R      4.767029803584547E-05
RMS Density                                R      7.774071596729707E-09
NImag                                      I                1
Job Status                                 I                1
Nuclear derivative order                   I                2
Thermal Energy                             R     -1.528143024387749E+02
Thermal Enthalpy                           R     -1.528133582539612E+02
Thermal Free Energy                        R     -1.528538577726784E+02
External E-field                           R   N=          35
  0.00000000E+00  0.00000000E+00  0.00000000E+00  0.00000000E+00  0.00000000E+00
  0.00000000E+00  0.00000000E+00  0.00000000E+00  0.00000000E+00  0.00000000E+00
  0.00000000E+00  0.00000000E+00  0.00000000E+00  0.00000000E+00  0.00000000E+00
  0.00000000E+00  0.00000000E+00  0.00000000E+00  0.00000000E+00  0.00000000E+00
  0.00000000E+00  0.00000000E+00  0.00000000E+00  0.00000000E+00  0.00000000E+00
  0.00000000E+00  0.00000000E+00  0.00000000E+00  0.00000000E+00  0.00000000E+00
  0.00000000E+00  0.00000000E+00  0.00000000E+00  0.00000000E+00  0.00000000E+00
IOpCl                                      I                0
IROHF                                      I                0
Alpha Orbital Energies                     R   N=          72
 -1.92574493E+01 -1.92484987E+01 -1.12618517E+00 -1.11723903E+00 -6.33607027E-01
 -6.24331707E-01 -4.85742785E-01 -4.76879962E-01 -4.11189444E-01 -4.02251354E-01
  3.49133493E-02  4.74212637E-02  7.19911482E-02  7.99611886E-02  2.00401165E-01
  2.11938745E-01  2.28162092E-01  2.28724988E-01  2.30905226E-01  2.37107379E-01
  2.38002411E-01  2.44373811E-01  2.91579052E-01  2.98082192E-01  3.00594699E-01
  3.07932401E-01  5.77065560E-01  5.85782648E-01  6.24884994E-01  6.35662306E-01
  1.03785656E+00  1.04499668E+00  1.07437782E+00  1.08318433E+00  1.08421815E+00
  1.09356025E+00  1.31177478E+00  1.32002290E+00  1.33244302E+00  1.34185601E+00
  1.43868013E+00  1.44857653E+00  1.54330364E+00  1.55146345E+00  1.74567710E+00
  1.75568141E+00  2.07586524E+00  2.08413122E+00  2.21471950E+00  2.22473766E+00
  2.48586014E+00  2.49604743E+00  2.65397235E+00  2.66359634E+00  3.17802908E+00
  3.18771710E+00  3.22840030E+00  3.23677975E+00  3.39605583E+00  3.40523157E+00
  3.76340635E+00  3.77059663E+00  3.98255840E+00  3.99234521E+00  5.03461867E+00
  5.04341698E+00  5.41344411E+00  5.42365464E+00  5.73540767E+00  5.74307609E+00
  4.99974945E+01  5.00067073E+01
Alpha MO coefficients                      R   N=        5184
  5.51671656E-01  4.69634493E-01 -1.38277670E-03 -2.09186084E-05 -2.83080079E-05
  1.22204507E-02 -2.61205441E-04 -3.91938057E-06 -5.30785919E-06 -4.66706907E-03
 -3.51325519E-04 -5.32177302E-06 -7.19094439E-06  4.43839242E-03 -5.42360784E-04
 -8.17209821E-06 -1.10660194E-05 -4.45547480E-05  7.34064616E-06 -3.59548389E-04
  1.66461977E-05  7.85567068E-06 -5.36870199E-05 -4.83957536E-04 -8.63700154E-04
 -5.33741637E-04 -5.75150406E-04 -5.59588025E-04  4.94767731E-04 -5.36773223E-05
 -4.83947392E-04 -8.63667961E-04 -5.33769663E-04 -5.71064548E-04  5.42288585E-04
 -5.18176989E-04 -8.01446660E-07 -6.38179733E-07  6.85797394E-07  1.20262510E-08
  1.29066088E-08 -2.41954547E-07 -2.52942575E-06 -7.28535763E-08 -7.72801775E-08
  1.56314085E-06  7.33785618E-06 -3.01311617E-07 -3.08504633E-07 -1.67231249E-06
 -1.10473320E-05  1.31856896E-06  1.36172471E-06  6.85683620E-08  3.89907892E-08
 -1.09692161E-07 -1.27218519E-07  3.80024318E-08  7.22101912E-07  4.33797498E-07
 -8.30448638E-06  8.24801956E-06 -2.79530861E-08 -3.77092404E-07 -3.91951988E-07
  1.30759207E-06 -2.15738212E-06 -9.13089537E-07  5.97655618E-06 -7.34409361E-08
  3.57011703E-07  3.72244269E-07  7.95251946E-07  1.05098144E-06 -4.29758060E-06
  3.04016991E-08  1.74951831E-08 -7.22259526E-06  1.50757728E-05 -1.23727178E-07
 -6.46383460E-08  5.26342903E-05 -6.11110003E-05 -1.73941074E-07 -1.81421857E-07
 -1.74672009E-04  1.08466648E-04  9.00928004E-07  6.36521319E-07 -6.58418992E-07
  5.53562078E-08 -3.04235883E-06  6.27144763E-07  8.59042691E-08 -4.71092699E-06
 -1.15638919E-05  5.63932980E-05  4.44588919E-05 -3.66648055E-06 -4.54630584E-06
  4.02744676E-06 -4.80973269E-06 -1.09553900E-05  5.44654993E-05  4.55368009E-05
 -3.59980075E-06  4.39048906E-06 -4.18669316E-06  5.51671664E-01  4.69634384E-01
 -1.38317678E-03  4.74851734E-05  4.66538222E-05  1.22226085E-02 -2.59871220E-04
  8.83620768E-06  8.68084236E-06 -4.67986586E-03 -3.52906793E-04  1.27180316E-05
  1.25328170E-05  4.44751998E-03 -5.38974241E-04  1.74042911E-05  1.70398679E-05
 -6.92485740E-06  1.04705371E-05  3.59093065E-04  4.05268390E-05  9.25110128E-06
 -5.23470990E-05 -4.86746709E-04 -8.53157195E-04 -5.40917655E-04 -5.37019187E-04
  5.36074081E-04  5.56701885E-04 -5.21017565E-05 -4.86554583E-04 -8.52746350E-04
 -5.46910408E-04 -6.08316267E-04 -4.96666124E-04 -5.17968754E-04 -1.15782984E-01
 -1.85901140E-01 -5.20295479E-02 -7.85614501E-04 -1.06395876E-03  5.38285538E-01
 -8.08961096E-02 -1.22164498E-03 -1.65451334E-03  3.61466906E-01 -2.74299368E-02
 -4.14996007E-04 -5.62938389E-04 -3.52676959E-03 -1.50728645E-03 -2.35521869E-05
 -3.23588932E-05 -2.46956487E-03  2.79377357E-04 -8.97436496E-03  2.76726326E-03
  2.66958452E-04  9.85508172E-02  8.59323586E-02 -5.32360531E-03  6.72186363E-03
  1.27900905E-02  1.70571710E-02 -1.52442377E-02  9.85505924E-02  8.59319454E-02
 -5.32385178E-03  6.72204690E-03  1.26654579E-02 -1.66731466E-02  1.57640191E-02
  6.90389486E-06  9.81903364E-06  4.68706950E-07  5.23197994E-08  5.94347423E-08
 -7.56977521E-06  1.92054658E-05 -9.60890146E-07 -9.82604704E-07 -1.26397892E-04
 -7.41467627E-05  8.66081343E-06  8.94488425E-06  5.17918155E-05  1.55037563E-04
 -2.62954870E-05 -2.71715993E-05 -4.22817153E-07 -4.21678954E-07  4.88906945E-07
  7.69327884E-07 -4.08366706E-07  1.31152908E-06 -7.91196801E-05  2.68606330E-04
 -1.86855131E-04  1.91282983E-06  2.78881461E-06  2.90232630E-06  2.67115053E-08
 -6.44074406E-05  2.18736136E-04 -2.56800990E-04  2.93124804E-06 -2.33942847E-06
 -2.43287122E-06 -7.78598316E-06 -1.38830607E-05  1.10524291E-05 -1.41624195E-07
 -1.08256037E-07  8.68155614E-05 -7.96273726E-05  4.34858007E-07  1.08798981E-07
 -3.90824174E-04  4.61139899E-04  1.67066538E-06  1.84137875E-06  1.77932712E-03
 -1.06333728E-03 -9.73689067E-06 -7.46978115E-06  2.92961310E-06 -2.63364295E-07
  1.37916144E-05 -2.74760346E-06 -4.12938437E-07  2.77917209E-05  1.03007350E-04
 -6.15245903E-04 -4.53483286E-04  2.25408914E-05  3.34222277E-05 -2.96582367E-05
  2.82688276E-05  9.87330353E-05 -5.97639529E-04 -4.64407244E-04  2.20968174E-05
 -3.23602640E-05  3.08074954E-05 -1.15772076E-01 -1.85882957E-01 -5.20523356E-02
  1.78823167E-03  1.75700704E-03  5.38228009E-01 -8.09434809E-02  2.78070278E-03
  2.73218255E-03  3.61493508E-01 -2.74286578E-02  9.38683379E-04  9.21426430E-04
 -3.56155722E-03 -1.53904739E-03  5.81492427E-05  5.69917658E-05 -1.52557653E-03
  1.04945987E-04  8.98127010E-03  3.35533992E-03  7.15251510E-05  9.85667123E-02
  8.59747720E-02 -5.40521422E-03  6.76966525E-03  1.16736886E-02 -1.62673069E-02
 -1.69028274E-02  9.85485143E-02  8.59525269E-02 -5.43012925E-03  6.81997238E-03
  1.38665094E-02  1.53924201E-02  1.60425117E-02  1.26222263E-07  1.71457197E-07
  6.55567947E-04  1.76989376E-01 -1.62704615E-01 -5.60307406E-07  9.50963271E-04
  2.56739945E-01 -2.36018450E-01 -6.32328993E-07  5.65715410E-04  1.52587157E-01
 -1.40271817E-01 -4.81135389E-06  3.91129068E-05  9.85593041E-03 -9.05978114E-03
  5.92187894E-04  1.67125777E-02 -1.19486636E-04  2.07260676E-04 -1.81823962E-02
 -1.53214209E-01 -2.09681428E-01 -3.57594164E-02 -1.50717786E-02 -2.34550518E-02
 -1.10694634E-02  9.37432292E-03  1.53213826E-01  2.09682515E-01  3.57675052E-02
  1.50720842E-02  2.33764514E-02 -1.03638732E-02  1.03295855E-02 -3.53271017E-10
 -9.82170366E-09 -3.39331331E-08  4.85166469E-07 -7.12046828E-07  1.94070771E-07
  4.44852923E-08 -1.57238547E-06  1.72758920E-06 -8.63596792E-07 -5.53465941E-07
  7.03213602E-06 -9.89783950E-06  3.03932590E-07  1.30293608E-06 -9.31066240E-06
  1.66424491E-05 -1.04697184E-08  1.49692300E-07  3.70525108E-09  1.07608553E-08
 -3.86430867E-08  1.33505477E-07 -7.63778726E-07  2.75647146E-06 -1.50246404E-05
  1.32908927E-07 -3.49645808E-07  2.05234492E-07  2.74383057E-08 -4.68494755E-07
  1.59041368E-06  1.13118810E-05 -9.55162344E-08 -3.52789932E-07  2.06033251E-07
  6.67410461E-08  1.51013062E-07 -1.45809946E-06  2.35730820E-06  2.42250118E-06
 -2.24478495E-06  3.85914302E-06 -8.70298825E-06 -9.91068380E-06  1.71207878E-05
 -2.85597369E-05  4.21634969E-05  4.39199646E-05 -8.73262591E-05  6.65701233E-05
 -7.47037098E-05 -7.16455972E-05 -1.42968841E-07 -1.31841658E-08 -6.15100453E-07
  1.49127782E-07 -1.92154706E-07 -1.49365620E-06  7.17542577E-07  1.08563674E-05
  4.46416717E-05 -7.53598714E-07 -2.69057268E-06 -6.49279938E-08 -6.26363784E-07
 -5.36690381E-06  3.89238247E-05  2.00263536E-05 -9.40014423E-07  2.31652248E-07
 -2.75802992E-06  8.14341087E-06  1.31587646E-05  1.15207239E-02  1.66404414E-01
  1.73160364E-01 -3.79897654E-05  1.67117005E-02  2.41376837E-01  2.51176608E-01
 -7.26430393E-05  9.95232944E-03  1.43558167E-01  1.49386602E-01 -7.83901500E-05
  6.70470690E-04  9.40089125E-03  9.78219063E-03  1.03689198E-03 -1.77441736E-02
  1.18538426E-03 -1.76980158E-03 -1.70496080E-02  1.53150617E-01  2.09728831E-01
  3.58059439E-02  1.51207665E-02  2.27818462E-02 -1.08247280E-02 -1.12184666E-02
 -1.53139147E-01 -2.09685289E-01 -3.56799315E-02 -1.51249016E-02 -2.41726476E-02
 -9.22092837E-03 -9.64141769E-03 -4.32893636E-02 -7.11061908E-02  2.60475366E-01
  3.92067591E-03  5.31337279E-03  2.17417113E-01  3.75374179E-01  5.64980965E-03
  7.65686607E-03  3.15580823E-01  2.91341596E-01  4.38374304E-03  5.93842910E-03
  2.80937625E-02  7.14243378E-02  1.07480278E-03  1.44890139E-03  8.58637717E-03
 -6.29680241E-04  1.81204948E-03 -1.45710566E-02 -4.77056831E-04 -8.73210781E-02
 -1.42851599E-01 -2.33740902E-02 -1.27167857E-03  1.46326035E-02 -2.01420103E-02
  1.90206851E-02 -8.73224042E-02 -1.42856323E-01 -2.33864328E-02 -1.27233006E-03
  1.47825089E-02  2.05854684E-02 -1.84200541E-02  4.94459400E-05  8.05230117E-05
 -2.80028579E-04  1.07302856E-05  1.06756234E-05 -2.33230712E-04 -4.17855383E-04
  1.47241966E-05  1.46364531E-05 -4.14589760E-04 -2.70389847E-04  1.24818299E-05
  1.23827127E-05 -1.05671646E-05 -1.68705855E-04  1.13204664E-05  1.17625032E-05
 -9.03917693E-06 -1.01533045E-06  1.69839051E-06  1.57874400E-05 -1.03608399E-06
  1.06599642E-04  1.07264553E-04  9.30628814E-05 -1.24452871E-06 -1.61010031E-05
 -2.27601409E-05 -2.36958646E-05  1.07865183E-04  8.82026363E-05  1.73616407E-04
 -6.40752701E-05 -1.31809263E-05  2.39008990E-05  2.48600410E-05 -5.22314131E-05
 -8.68106255E-05  3.07011054E-04  5.49493090E-06  7.17916664E-06  2.90297378E-04
  4.27646562E-04  8.14562080E-06  1.03602826E-05  1.99597475E-04  4.27370457E-04
  6.38649841E-06  8.91231666E-06  6.37755778E-04 -1.60531693E-04 -2.87522430E-07
 -7.35789812E-07  1.06843452E-05 -8.50624249E-07  5.16125425E-06 -1.76412547E-05
 -6.91677357E-07 -9.23922435E-05 -1.79391788E-04 -1.12904176E-04 -2.29472244E-04
  2.40246711E-05 -1.49205378E-05  1.48348267E-05 -9.21465054E-05 -1.80613273E-04
 -1.07027443E-04 -2.39232279E-04  2.41470447E-05  1.59215654E-05 -1.35181517E-05
 -4.33462890E-02 -7.11985298E-02  2.60219101E-01 -8.90133147E-03 -8.74607637E-03
  2.17670807E-01  3.74982985E-01 -1.28273185E-02 -1.26036180E-02  3.16191455E-01
  2.90699232E-01 -9.93534094E-03 -9.76228337E-03  2.87703895E-02  7.06989609E-02
 -2.38544340E-03 -2.34073635E-03  8.38934976E-03  9.21791859E-04 -1.84418365E-03
 -1.46735056E-02  9.45415855E-04 -8.74311192E-02 -1.43242836E-01 -2.38217651E-02
 -1.26553659E-03  1.59462809E-02  1.86794918E-02  1.94675750E-02 -8.74409001E-02
 -1.43237757E-01 -2.36739340E-02 -1.21892480E-03  1.32794619E-02 -1.96825882E-02
 -2.04522841E-02 -3.19220601E-06 -5.26181242E-06 -7.45528526E-03  2.00156437E-01
  2.17699532E-01  1.70800975E-05 -1.09523142E-02  2.94035414E-01  3.19806680E-01
  1.94225170E-05 -1.01125705E-02  2.71573718E-01  2.95375911E-01 -5.85048251E-05
 -2.62933097E-03  7.07829490E-02  7.69846590E-02 -4.49166935E-04 -1.26828687E-02
 -4.30604426E-04  6.10999609E-04 -1.16624151E-02 -2.96910792E-06 -3.01575400E-07
  2.36487602E-05 -1.59046231E-06 -8.77151753E-04  2.35512434E-02  2.56153644E-02
 -3.08509143E-06 -8.37578936E-07  2.17903006E-05 -1.39296428E-06 -8.77261038E-04
  2.35513205E-02  2.56155846E-02  2.04297680E-07  3.53739737E-07 -2.46552254E-06
 -3.25193679E-06 -2.12991450E-06 -1.12660969E-06 -2.66737156E-06 -5.20485017E-06
 -3.44096686E-06 -4.72237504E-06 -8.01064325E-07  1.96461805E-05  2.17177138E-05
  3.82747325E-05 -1.68553610E-05 -1.04993982E-04 -1.08045981E-04  1.74213129E-08
 -1.33284172E-06 -9.26856341E-08 -3.76885215E-08 -1.21146813E-06  1.66956932E-06
 -3.16961050E-05  1.25610234E-04  1.50454624E-04 -3.04123135E-06  9.88564183E-07
  1.19559861E-06 -2.08321100E-06  4.80139092E-05 -1.82667720E-04 -1.47666191E-04
  3.41783297E-06  1.54378917E-06  1.78560715E-06 -1.75758355E-08 -3.05957722E-08
  7.34147396E-08  5.48531711E-07  8.27081587E-07  1.51867783E-07  1.34548700E-08
 -6.68701420E-06  7.96478324E-06 -3.99235359E-07  5.55816631E-07  1.28473613E-05
 -9.54741103E-06  2.72696387E-06 -1.30126664E-06  8.56119320E-06 -8.26173636E-06
 -2.49478066E-08 -8.94715541E-07  2.07401075E-08 -1.63762230E-08  8.86010022E-07
  9.40362197E-06 -5.52216675E-05  2.58861267E-04 -4.43805119E-04  1.14615134E-07
  7.01973544E-07 -5.05892985E-07 -9.43812136E-06  5.54514444E-05 -2.61137370E-04
  4.42831408E-04 -6.35147948E-08  6.39634546E-07 -4.55276182E-07  3.15780315E-07
  5.11166410E-07  4.06378649E-04  2.13264538E-01 -2.04970922E-01 -1.83126024E-06
  5.97009088E-04  3.13293198E-01 -3.01109563E-01 -9.45940469E-07  5.49833580E-04
  2.89335513E-01 -2.78083402E-01  1.58591144E-05  1.38767649E-04  7.55769596E-02
 -7.26372451E-02 -6.97996134E-04  1.19538170E-02  9.07703793E-06 -4.50456315E-04
 -1.24358566E-02 -3.61868197E-07 -1.93218457E-06 -6.37611423E-06  3.82168160E-07
  4.76899068E-05  2.51032959E-02 -2.41265288E-02 -8.75898013E-08 -1.42606815E-06
 -7.26308203E-06  7.70353954E-07  4.76955362E-05  2.50957624E-02 -2.41202880E-02
 -2.25152454E-02 -3.80855811E-02 -4.75473818E-02 -7.52947963E-04 -1.03313924E-03
  1.43165935E-01 -6.95516075E-02 -1.07884680E-03 -1.49240873E-03  8.68498129E-02
 -9.54825474E-02 -1.58625354E-03 -2.12995238E-03  8.12160748E-01 -8.17922722E-02
 -9.75830022E-04 -1.39543465E-03 -1.34323296E-03  8.06563218E-05  1.72774867E-03
  2.61827225E-03  4.70057790E-05 -7.14107929E-03 -8.70334059E-02 -1.27484656E-01
 -6.81452016E-01  1.17697703E-02  1.35086050E-02 -1.20200373E-02 -7.12828288E-03
 -8.70816916E-02 -1.27168710E-01 -6.82854841E-01  1.16755957E-02 -1.31635612E-02
  1.24994367E-02 -7.99228523E-03 -1.35722098E-02 -1.91551272E-02  4.82251817E-04
  4.63955731E-04  5.20942448E-02 -2.68857901E-02  6.22093620E-04  5.94244024E-04
  2.24252785E-02 -4.29559141E-02  1.55386207E-03  1.53162084E-03  2.94926377E-01
 -9.17252580E-03 -1.98148009E-03 -2.07897530E-03 -6.30140062E-04 -1.02116923E-04
 -5.20808634E-04  1.04970054E-03 -1.01228206E-04 -1.78410176E-03 -3.40634673E-02
 -2.37171474E-02 -2.55217415E-01  4.16946505E-03 -4.59035655E-03 -4.76777438E-03
 -1.76259829E-03 -3.39731224E-02 -2.70438761E-02 -2.75319570E-01  4.95029299E-03
  4.36359963E-03  4.54973313E-03  9.20484651E-03  1.55608763E-02  2.72986342E-02
  3.54461497E-04  4.39292132E-04 -5.79086864E-02  3.69684314E-02  5.19319629E-04
  6.13185272E-04 -4.57921385E-02  6.85673286E-02  7.61034155E-04  1.08164560E-03
 -2.98442937E-01 -2.45163933E-02  1.64096271E-04 -5.85708696E-05  9.04421531E-04
 -4.79143022E-05 -4.77241864E-04 -1.64702565E-03 -3.41189230E-05  3.23798917E-03
  3.87563477E-02  4.11270310E-02  2.81262702E-01 -4.82995123E-03 -5.54459129E-03
  4.92552205E-03  3.27058712E-03  3.86367986E-02  4.18745062E-02  2.77376359E-01
 -4.77614318E-03  5.37968930E-03 -5.11673613E-03 -2.29991020E-02 -3.88717167E-02