Energy: -26.09245376                                                    
Freq      RwB97XD                                                     6-311++G(d,p)       
Number of atoms                            I                6
Info1-9                                    I   N=           9
          17          16           0           0           0         100
           6          18       -5802
Full Title                                 C   N=           2
Energy: -26.09245376    
Route                                      C   N=           4
# freq rwb97xd/6-311++g(d,p) int=ultrafine      
Charge                                     I                0
Multiplicity                               I                1
Number of electrons                        I               20
Number of alpha electrons                  I               10
Number of beta electrons                   I               10
Number of basis functions                  I               72
Number of independent functions            I               72
Number of point charges in /Mol/           I                0
Number of translation vectors              I                0
Atomic numbers                             I   N=           6
           8           1           1           8           1           1
Nuclear charges                            R   N=           6
  8.00000000E+00  1.00000000E+00  1.00000000E+00  8.00000000E+00  1.00000000E+00
  1.00000000E+00
Current cartesian coordinates              R   N=          18
 -5.16205723E+00 -8.87954962E-04  5.56264506E-02 -6.24354380E+00 -1.43393146E+00
 -1.72151688E-01 -6.23537812E+00  1.44142668E+00 -1.51347693E-01  5.56962373E+00
  1.58505039E-03 -1.20547047E-01  5.31534974E+00 -1.50445242E-02  1.67110418E+00
  3.90304024E+00  1.97254459E-03 -8.28240032E-01
Number of symbols in /Mol/                 I                0
Int Atom Types                             I   N=           6
           0           0           0           0           0           0
Force Field                                I                0
Atom Types                                 C   N=           6
                                                            
            
MM charges                                 R   N=           6
  0.00000000E+00  0.00000000E+00  0.00000000E+00  0.00000000E+00  0.00000000E+00
  0.00000000E+00
Integer atomic weights                     I   N=           6
          16           1           1          16           1           1
Real atomic weights                        R   N=           6
  1.59949146E+01  1.00782504E+00  1.00782504E+00  1.59949146E+01  1.00782504E+00
  1.00782504E+00
Atom fragment info                         I   N=           6
           0           0           0           0           0           0
Atom residue num                           I   N=           6
           0           0           0           0           0           0
Nuclear spins                              I   N=           6
           0           1           1           0           1           1
Nuclear ZEff                               R   N=           6
 -5.60000000E+00 -1.00000000E+00 -1.00000000E+00 -5.60000000E+00 -1.00000000E+00
 -1.00000000E+00
Nuclear ZNuc                               R   N=           6
  8.00000000E+00  1.00000000E+00  1.00000000E+00  8.00000000E+00  1.00000000E+00
  1.00000000E+00
Nuclear QMom                               R   N=           6
  0.00000000E+00  0.00000000E+00  0.00000000E+00  0.00000000E+00  0.00000000E+00
  0.00000000E+00
Nuclear GFac                               R   N=           6
  0.00000000E+00  2.79284600E+00  2.79284600E+00  0.00000000E+00  2.79284600E+00
  2.79284600E+00
MicOpt                                     I   N=           6
          -1          -1          -1          -1          -1          -1
Number of residues                         I                0
Number of secondary structures             I                0
SymInf integers                            I   N=          26
           1           1           1           1           1           0
           0           0           0           0           0           0
           0           0           0           0           0           0
           0           0           0           0           0           0
           0           0
RotTr to input orientation                 R   N=          12
 -1.00000000E+00 -6.02090224E-08  0.00000000E+00  6.02090224E-08 -1.00000000E+00
  0.00000000E+00  0.00000000E+00  0.00000000E+00  1.00000000E+00 -9.44863060E-08
 -9.44863062E-08 -4.72431531E-07
Number of contracted shells                I               32
Number of primitive shells                 I               54
Pure/Cartesian d shells                    I                0
Pure/Cartesian f shells                    I                0
Highest angular momentum                   I                2
Largest degree of contraction              I                6
Shell types                                I   N=          32
           0          -1          -1          -1          -1          -2
           0           0           0           0           1           0
           0           0           0           1           0          -1
          -1          -1          -1          -2           0           0
           0           0           1           0           0           0
           0           1
Number of primitives per shell             I   N=          32
           6           3           1           1           1           1
           3           1           1           1           1           3
           1           1           1           1           6           3
           1           1           1           1           3           1
           1           1           1           3           1           1
           1           1
Shell to atom map                          I   N=          32
           1           1           1           1           1           1
           2           2           2           2           2           3
           3           3           3           3           4           4
           4           4           4           4           5           5
           5           5           5           6           6           6
           6           6
Primitive exponents                        R   N=          54
  8.58850000E+03  1.29723000E+03  2.99296000E+02  8.73771000E+01  2.56789000E+01
  3.74004000E+00  4.21175000E+01  9.62837000E+00  2.85332000E+00  9.05661000E-01
  2.55611000E-01  8.45000000E-02  1.29200000E+00  3.38650000E+01  5.09479000E+00
  1.15879000E+00  3.25840000E-01  1.02741000E-01  3.60000000E-02  7.50000000E-01
  3.38650000E+01  5.09479000E+00  1.15879000E+00  3.25840000E-01  1.02741000E-01
  3.60000000E-02  7.50000000E-01  8.58850000E+03  1.29723000E+03  2.99296000E+02
  8.73771000E+01  2.56789000E+01  3.74004000E+00  4.21175000E+01  9.62837000E+00
  2.85332000E+00  9.05661000E-01  2.55611000E-01  8.45000000E-02  1.29200000E+00
  3.38650000E+01  5.09479000E+00  1.15879000E+00  3.25840000E-01  1.02741000E-01
  3.60000000E-02  7.50000000E-01  3.38650000E+01  5.09479000E+00  1.15879000E+00
  3.25840000E-01  1.02741000E-01  3.60000000E-02  7.50000000E-01
Contraction coefficients                   R   N=          54
  1.89515008E-03  1.43859006E-02  7.07320031E-02  2.40001011E-01  5.94797026E-01
  2.80802012E-01  1.13889012E-01  9.20811101E-01 -3.27447036E-03  1.00000000E+00
  1.00000000E+00  1.00000000E+00  1.00000000E+00  2.54938145E-02  1.90373109E-01
  8.52161486E-01  1.00000000E+00  1.00000000E+00  1.00000000E+00  1.00000000E+00
  2.54938145E-02  1.90373109E-01  8.52161486E-01  1.00000000E+00  1.00000000E+00
  1.00000000E+00  1.00000000E+00  1.89515008E-03  1.43859006E-02  7.07320031E-02
  2.40001011E-01  5.94797026E-01  2.80802012E-01  1.13889012E-01  9.20811101E-01
 -3.27447036E-03  1.00000000E+00  1.00000000E+00  1.00000000E+00  1.00000000E+00
  2.54938145E-02  1.90373109E-01  8.52161486E-01  1.00000000E+00  1.00000000E+00
  1.00000000E+00  1.00000000E+00  2.54938145E-02  1.90373109E-01  8.52161486E-01
  1.00000000E+00  1.00000000E+00  1.00000000E+00  1.00000000E+00
P(S=P) Contraction coefficients            R   N=          54
  0.00000000E+00  0.00000000E+00  0.00000000E+00  0.00000000E+00  0.00000000E+00
  0.00000000E+00  3.65113974E-02  2.37152983E-01  8.19701941E-01  1.00000000E+00
  1.00000000E+00  1.00000000E+00  0.00000000E+00  0.00000000E+00  0.00000000E+00
  0.00000000E+00  0.00000000E+00  0.00000000E+00  0.00000000E+00  0.00000000E+00
  0.00000000E+00  0.00000000E+00  0.00000000E+00  0.00000000E+00  0.00000000E+00
  0.00000000E+00  0.00000000E+00  0.00000000E+00  0.00000000E+00  0.00000000E+00
  0.00000000E+00  0.00000000E+00  0.00000000E+00  3.65113974E-02  2.37152983E-01
  8.19701941E-01  1.00000000E+00  1.00000000E+00  1.00000000E+00  0.00000000E+00
  0.00000000E+00  0.00000000E+00  0.00000000E+00  0.00000000E+00  0.00000000E+00
  0.00000000E+00  0.00000000E+00  0.00000000E+00  0.00000000E+00  0.00000000E+00
  0.00000000E+00  0.00000000E+00  0.00000000E+00  0.00000000E+00
Coordinates of each shell                  R   N=          96
 -5.16205723E+00 -8.87954962E-04  5.56264506E-02 -5.16205723E+00 -8.87954962E-04
  5.56264506E-02 -5.16205723E+00 -8.87954962E-04  5.56264506E-02 -5.16205723E+00
 -8.87954962E-04  5.56264506E-02 -5.16205723E+00 -8.87954962E-04  5.56264506E-02
 -5.16205723E+00 -8.87954962E-04  5.56264506E-02 -6.24354380E+00 -1.43393146E+00
 -1.72151688E-01 -6.24354380E+00 -1.43393146E+00 -1.72151688E-01 -6.24354380E+00
 -1.43393146E+00 -1.72151688E-01 -6.24354380E+00 -1.43393146E+00 -1.72151688E-01
 -6.24354380E+00 -1.43393146E+00 -1.72151688E-01 -6.23537812E+00  1.44142668E+00
 -1.51347693E-01 -6.23537812E+00  1.44142668E+00 -1.51347693E-01 -6.23537812E+00
  1.44142668E+00 -1.51347693E-01 -6.23537812E+00  1.44142668E+00 -1.51347693E-01
 -6.23537812E+00  1.44142668E+00 -1.51347693E-01  5.56962373E+00  1.58505039E-03
 -1.20547047E-01  5.56962373E+00  1.58505039E-03 -1.20547047E-01  5.56962373E+00
  1.58505039E-03 -1.20547047E-01  5.56962373E+00  1.58505039E-03 -1.20547047E-01
  5.56962373E+00  1.58505039E-03 -1.20547047E-01  5.56962373E+00  1.58505039E-03
 -1.20547047E-01  5.31534974E+00 -1.50445242E-02  1.67110418E+00  5.31534974E+00
 -1.50445242E-02  1.67110418E+00  5.31534974E+00 -1.50445242E-02  1.67110418E+00
  5.31534974E+00 -1.50445242E-02  1.67110418E+00  5.31534974E+00 -1.50445242E-02
  1.67110418E+00  3.90304024E+00  1.97254459E-03 -8.28240032E-01  3.90304024E+00
  1.97254459E-03 -8.28240032E-01  3.90304024E+00  1.97254459E-03 -8.28240032E-01
  3.90304024E+00  1.97254459E-03 -8.28240032E-01  3.90304024E+00  1.97254459E-03
 -8.28240032E-01
Num ILSW                                   I              100
ILSW                                       I   N=         100
           0           0           0           0           2           0
           0           0           0           0        4639          -1
           5           0           0           0           2           0
           0           0           1           0           1           0
           1           0           0           0           0           0
           0           0      100000           0          -1           0
           0           0           0           0           0           0
           0           0           0           1           0           0
           0 -2000000000           1           0           0           0
           0           0         121          52           0           0
           0           0          58           0           0           0
           0           0           0           0           0           1
           0           0           0           0           0           0
           0           0           0           0           0           0
           0           0           0           0           0           0
           0           0           0           0           0           0
           0           0           0           0
Num RLSW                                   I               52
RLSW                                       R   N=          52
  1.00000000E+00  1.00000000E+00  1.00000000E+00  1.00000000E+00  1.00000000E+00
  0.00000000E+00  2.00000000E-01  2.22036000E-01  0.00000000E+00  7.77964000E-01
  0.00000000E+00  2.00000000E-01  0.00000000E+00  0.00000000E+00  1.00000000E+00
  0.00000000E+00  0.00000000E+00  1.00000000E+00  0.00000000E+00  0.00000000E+00
  0.00000000E+00  0.00000000E+00  1.00000000E+00  0.00000000E+00  0.00000000E+00
  0.00000000E+00  0.00000000E+00  1.00000000E+00  0.00000000E+00  0.00000000E+00
  0.00000000E+00  0.00000000E+00  1.00000000E+00  0.00000000E+00  0.00000000E+00
  0.00000000E+00  0.00000000E+00  0.00000000E+00  1.00000000E+00  1.00000000E+00
  0.00000000E+00  1.00000000E+00  0.00000000E+00  0.00000000E+00  0.00000000E+00
  0.00000000E+00  0.00000000E+00  0.00000000E+00  0.00000000E+00  0.00000000E+00
  0.00000000E+00  0.00000000E+00
MxBond                                     I                2
NBond                                      I   N=           6
           2           1           1           2           1           1
IBond                                      I   N=          12
           2           3           1           0           1           0
           5           6           4           0           4           0
RBond                                      R   N=          12
  1.00000000E+00  1.00000000E+00  1.00000000E+00  0.00000000E+00  1.00000000E+00
  0.00000000E+00  1.00000000E+00  1.00000000E+00  1.00000000E+00  0.00000000E+00
  1.00000000E+00  0.00000000E+00
Virial Ratio                               R      2.002843876943357E+00
SCF Energy                                 R     -1.528659194549771E+02
Total Energy                               R     -1.528659194549771E+02
RMS Force                                  R      1.226900250288410E-04
RMS Density                                R      9.402488469733924E-09
NImag                                      I                1
Job Status                                 I                1
Nuclear derivative order                   I                2
Thermal Energy                             R     -1.528149190113176E+02
Thermal Enthalpy                           R     -1.528139748265040E+02
Thermal Free Energy                        R     -1.528523787933583E+02
External E-field                           R   N=          35
  0.00000000E+00  0.00000000E+00  0.00000000E+00  0.00000000E+00  0.00000000E+00
  0.00000000E+00  0.00000000E+00  0.00000000E+00  0.00000000E+00  0.00000000E+00
  0.00000000E+00  0.00000000E+00  0.00000000E+00  0.00000000E+00  0.00000000E+00
  0.00000000E+00  0.00000000E+00  0.00000000E+00  0.00000000E+00  0.00000000E+00
  0.00000000E+00  0.00000000E+00  0.00000000E+00  0.00000000E+00  0.00000000E+00
  0.00000000E+00  0.00000000E+00  0.00000000E+00  0.00000000E+00  0.00000000E+00
  0.00000000E+00  0.00000000E+00  0.00000000E+00  0.00000000E+00  0.00000000E+00
IOpCl                                      I                0
IROHF                                      I                0
Alpha Orbital Energies                     R   N=          72
 -1.92597938E+01 -1.92455616E+01 -1.12842851E+00 -1.11418515E+00 -6.35880471E-01
 -6.21020295E-01 -4.88358449E-01 -4.74162423E-01 -4.13569621E-01 -3.99379758E-01
  3.28362568E-02  5.31962024E-02  7.09950255E-02  8.61819177E-02  2.04813091E-01
  2.12125416E-01  2.19810945E-01  2.23110421E-01  2.27321809E-01  2.41231533E-01
  2.43591996E-01  2.66680847E-01  2.89272103E-01  2.93218367E-01  3.06030340E-01
  3.39355344E-01  5.75489869E-01  5.90439295E-01  6.23709690E-01  6.39454482E-01
  1.03380793E+00  1.06576752E+00  1.07461891E+00  1.08056129E+00  1.08759611E+00
  1.10647127E+00  1.30991378E+00  1.32566920E+00  1.33039756E+00  1.34544382E+00
  1.43277655E+00  1.46633300E+00  1.54139268E+00  1.55408799E+00  1.74343481E+00
  1.76019698E+00  2.07414137E+00  2.08766455E+00  2.21420998E+00  2.22798888E+00
  2.48524905E+00  2.49910677E+00  2.65215469E+00  2.66875882E+00  3.17550951E+00
  3.19106157E+00  3.22609246E+00  3.23921677E+00  3.39362634E+00  3.40832547E+00
  3.76370955E+00  3.77410595E+00  3.97995014E+00  3.99907701E+00  5.03476989E+00
  5.04660896E+00  5.41145865E+00  5.43762111E+00  5.73321092E+00  5.74579849E+00
  4.99951562E+01  5.00116505E+01
Alpha MO coefficients                      R   N=        5184
  5.51671846E-01  4.69633891E-01 -1.35215713E-03  5.82120892E-06 -2.73331946E-04
  1.22219044E-02 -2.50977615E-04  1.09003508E-06 -5.33899427E-05 -4.66509726E-03
 -3.66068419E-04  1.46703215E-06 -6.56094061E-05  4.41706201E-03 -4.92149884E-04
  2.37003268E-06 -1.12082843E-04 -3.17344900E-04  8.24414098E-05  4.88145827E-06
 -1.57081857E-04  3.05330634E-07 -5.52662875E-05 -4.84009887E-04 -8.58909757E-04
 -5.17581455E-04 -5.64856889E-04 -7.47067895E-04 -1.18902881E-04 -5.52674385E-05
 -4.83909241E-04 -8.59286715E-04 -5.17456515E-04 -5.60582695E-04  7.51887888E-04
 -1.08055040E-04  1.32808827E-05  9.30213920E-06 -1.27428341E-06 -2.62616197E-08
  3.09342255E-06  2.12052125E-05  5.96218687E-06  9.27305198E-08 -1.02220362E-05
 -9.96603877E-05  3.52837545E-05 -3.25576601E-07  5.42678576E-05  1.94792526E-04
 -9.43358308E-05  5.57288860E-07 -9.99419591E-05  2.33653773E-06 -4.16766298E-06
 -7.45464819E-09 -4.74923597E-06  2.90354450E-09  6.27528673E-06 -3.05494884E-05
  5.31593258E-05  8.46811367E-05 -1.93659071E-06  5.52979247E-09 -1.55548436E-06
 -4.18321913E-06  6.17558294E-05 -1.24293778E-04 -1.77656071E-04  1.51699913E-05
  1.58046089E-08  4.93056240E-06 -1.34646596E-05 -1.29637887E-05 -1.06387715E-05
  1.56244191E-08  9.92756515E-07  1.04181003E-05  3.98946919E-05 -5.86334614E-08
 -3.39744233E-06 -2.57527891E-05 -1.10624147E-04  1.31604985E-07  7.89062124E-06
 -4.86605817E-05  2.10333085E-04  1.75317604E-07 -7.56678680E-06 -1.31798254E-06
 -3.96946666E-08  2.16174255E-08 -6.51496993E-07  7.53402658E-09 -8.39669212E-06
  1.59930423E-05 -4.97158925E-06  9.09403951E-05 -3.59719198E-06  3.23958458E-07
  4.60104367E-08 -8.39248592E-06  1.61130468E-05 -6.37175673E-06  9.14016356E-05
 -3.61031460E-06 -3.09879287E-07  3.40398837E-08  5.51671922E-01  4.69632042E-01
 -1.20275515E-03 -1.02295357E-05  6.85232405E-04  1.22422269E-02 -2.22159869E-04
 -1.84566744E-06  1.16654223E-04 -4.76663817E-03 -2.89783559E-04 -2.92477034E-06
  2.32287888E-04  4.62275401E-03 -5.37398327E-04 -3.35740766E-06  1.50461437E-04
  2.33002580E-04  1.21023339E-04 -5.27400762E-06  2.44934210E-04  6.47951601E-07
 -4.86859319E-05 -5.16423644E-04 -7.92775789E-04 -4.30738355E-04 -1.33838517E-04
 -8.66234079E-06  9.32045289E-04 -4.83477304E-05 -4.61670967E-04 -9.17863281E-04
 -8.04612668E-04 -8.52446395E-04  2.03475497E-07 -3.64166859E-04 -1.15803394E-01
 -1.85934237E-01 -5.09104942E-02  2.18811885E-04 -1.02942014E-02  5.38371551E-01
 -7.91643769E-02  3.40353710E-04 -1.60050888E-02  3.61648917E-01 -2.66424433E-02
  1.15272066E-04 -5.44667462E-03 -3.48806349E-03 -1.49690516E-03  6.40890923E-06
 -2.80480752E-04 -9.10207374E-03  2.96305612E-03  1.17699136E-04 -1.66011606E-03
 -1.19314634E-05  9.85133669E-02  8.58711640E-02 -5.34832979E-03  6.68427728E-03
  1.25499871E-02  2.28576815E-02  2.68754212E-03  9.85124215E-02  8.58705385E-02
 -5.34925920E-03  6.68473381E-03  1.24197255E-02 -2.29650579E-02  2.35605332E-03
 -2.92887185E-05 -4.44921421E-05 -1.34105308E-05 -3.79284807E-08  1.60535912E-06
  7.37985621E-05 -1.30245917E-05 -4.55464755E-07  3.37743332E-05  4.45486892E-04
 -2.12549884E-04  1.41710310E-06 -1.82530396E-04 -5.30953776E-04  4.40914936E-04
 -2.51369788E-06  3.27621845E-04 -4.92881311E-06  1.01397274E-05 -2.12207643E-08
  1.47728020E-05  5.46290185E-09  8.57292935E-06  1.29006217E-04 -1.22998651E-04
 -4.96648243E-04  8.89384205E-06  2.28918787E-08 -6.80508459E-07  2.43925070E-05
 -1.15308386E-04  1.48191521E-04  6.63514449E-04 -4.62437416E-05 -8.04876625E-08
 -1.78556371E-05  3.30433806E-05  5.62317940E-05  4.62626032E-05 -1.30840802E-07
  2.78255075E-06 -2.13516389E-04 -1.36508580E-04  2.65354569E-07  4.28822684E-06
  1.56537150E-04  6.91089839E-04 -1.13958607E-06 -8.33301122E-08  1.30560006E-04
 -1.69501618E-03 -1.95240249E-06 -4.55585167E-06  4.48142754E-06 -9.78883035E-07
 -7.42225693E-08  2.31245570E-06 -2.38681406E-08  9.14416137E-06 -1.43727746E-04
  1.34747387E-04 -8.31710175E-04  1.18576651E-05 -5.89477580E-06 -1.05030769E-06
  9.20768317E-06 -1.45073520E-04  1.49725584E-04 -8.39721681E-04  1.19447635E-05
  5.87892019E-06 -9.35392899E-07 -1.15779355E-01 -1.85890104E-01 -4.52743076E-02
 -3.84668495E-04  2.57234971E-02  5.38153990E-01 -7.04309575E-02 -5.98536857E-04
  4.00566101E-02  3.62219335E-01 -2.39102107E-02 -2.00588925E-04  1.31665473E-02
 -4.61127746E-03 -8.93930857E-04 -1.58192079E-05  1.51516174E-03  5.40520243E-03
  1.11202767E-03 -1.48478182E-04  7.97514839E-03  4.61421858E-05  9.86658133E-02
  8.63136072E-02 -5.71084340E-03  5.79511379E-03 -5.64233575E-05  2.29864847E-04
 -2.62022999E-02  9.83317983E-02  8.55489035E-02 -5.49804177E-03  9.05056000E-03
  2.23671667E-02 -4.12579277E-05  1.35565511E-02 -2.51746407E-07 -3.96897648E-07
  6.83787150E-04  2.40470311E-01  1.74010091E-03  1.12419021E-06  9.91947841E-04
  3.48832854E-01  2.52426016E-03  2.46768476E-06  5.90073034E-04  2.07705454E-01
  1.50292467E-03 -4.52256141E-07  4.04519229E-05  1.37616301E-02  9.96806654E-05
 -6.12872473E-05 -1.88878579E-04 -4.89097633E-03 -1.72804007E-04 -2.41790928E-02
 -1.53185672E-01 -2.09291140E-01 -3.51291056E-02 -1.49850875E-02 -2.29931362E-02
 -1.44541291E-02 -4.72858209E-03  1.53184882E-01  2.09290331E-01  3.51288824E-02
  1.49862336E-02  2.29104971E-02 -1.46514824E-02  4.51815088E-03  6.40754215E-08
  1.06266536E-07 -9.69791904E-07  9.97616716E-06 -1.22741299E-06 -4.20056668E-07
 -1.25480186E-06 -1.01725858E-05 -1.95345171E-06  6.02000632E-07 -2.13474513E-06
  9.14273186E-05 -2.62172119E-07 -5.68528609E-06  3.47865557E-06 -1.43386248E-04
 -2.51843252E-06 -1.06939977E-07  8.85348572E-08  3.80642577E-07  1.39093202E-07
 -1.34659729E-06 -9.21180915E-07 -2.19941786E-06  4.76028464E-06 -1.35648330E-06
 -7.90342161E-08 -1.97898931E-06  2.30280465E-07  1.12195430E-06  5.63935922E-07
  4.44636168E-06 -2.31654993E-06  4.74176710E-09 -2.47733840E-06 -8.64519665E-08
  1.11914893E-05  1.55776050E-05 -1.45182722E-04  2.02535449E-06  1.63770576E-05
  1.75602519E-05 -1.12771513E-04  3.12342071E-06 -2.92456516E-05 -5.57981939E-04
 -4.12681647E-04  1.05278038E-06  2.28969528E-04  1.24306828E-03  6.39328718E-04
  3.75176874E-06 -4.62093388E-04  2.83047666E-06  1.32979385E-08 -1.15548527E-07
  5.82729523E-06 -2.54683939E-07  2.99821591E-05  2.30538590E-04 -6.42103091E-04
  4.30985979E-04  1.59768206E-06  3.56774496E-05  1.41100595E-06  3.23935091E-05
  2.32492515E-04 -6.42864628E-04  4.31817821E-04  1.60735571E-06 -3.58842900E-05
  9.30768813E-07  1.78671632E-04  2.87705025E-04  1.18136057E-01 -1.42696548E-03
  2.09494864E-01 -7.87371145E-04  1.71345192E-01 -2.06957375E-03  3.03828707E-01
 -1.86536068E-03  1.02503725E-01 -1.23276721E-03  1.81184314E-01 -1.23984375E-03
  7.09417642E-03 -7.76626833E-05  1.16884014E-02  1.83351088E-02 -1.27459177E-02
 -2.30771525E-04 -1.05749977E-02  3.79491714E-05  1.53166429E-01  2.09896525E-01
  3.65745861E-02  1.58421964E-02  1.34280615E-02  2.58322314E-04 -2.40984563E-02
 -1.52914468E-01 -2.08806778E-01 -3.35655202E-02 -1.65525997E-02 -2.76652287E-02
 -8.71105206E-05 -9.99420246E-04 -4.31654058E-02 -7.09018496E-02  2.55466637E-01
 -1.09762470E-03  5.12963990E-02  2.16770350E-01  3.68219046E-01 -1.58188768E-03
  7.39174585E-02  3.14398173E-01  2.86069937E-01 -1.22887414E-03  5.73924036E-02
  2.75495914E-02  7.10602555E-02 -2.99061855E-04  1.40385109E-02  8.96979107E-03
 -6.02393157E-03 -6.96185197E-07 -1.30737528E-02  1.17959349E-04 -8.73179756E-02
 -1.42418328E-01 -2.26657251E-02 -9.62451160E-04  1.42443397E-02 -2.76386467E-02
  2.67820136E-03 -8.73188164E-02 -1.42419197E-01 -2.26755007E-02 -9.60262213E-04
  1.44006261E-02  2.75157517E-02  3.07711541E-03  5.44204013E-04  8.89186113E-04
 -2.46420193E-03 -2.17679082E-05  1.69580455E-03 -2.64126027E-03 -3.53007070E-03
 -3.10402491E-05  2.39816347E-03 -4.36832366E-03 -2.71741179E-03 -2.53027480E-05
  2.10919881E-03  3.29111550E-04 -9.99333096E-04 -5.95759373E-07 -2.81642546E-04
  9.02592391E-06 -1.50342163E-04 -1.75060147E-06  1.30363014E-04  2.12837684E-06
  1.17426256E-03  1.53102970E-03  1.36091784E-03  3.21223556E-04 -3.00217723E-04
  1.01611867E-06 -2.10426478E-04  8.98293919E-04  1.57998204E-03  3.89626553E-04
 -1.56263450E-03 -5.64028652E-05 -2.99114320E-06  3.69734721E-04 -5.68011631E-04
 -9.36509049E-04  3.20983967E-03 -1.45640668E-05  8.14780126E-04  2.98035683E-03
  4.49059259E-03 -2.09134109E-05  1.19325311E-03  3.14242550E-03  4.42400055E-03
 -1.74922085E-05  9.84647519E-04  4.97638027E-03 -1.60523870E-03 -3.37785413E-06
  7.02711077E-06  1.39702188E-04 -9.26726484E-05 -3.64066047E-07 -1.59323632E-04
  1.40837400E-06 -1.06874332E-03 -1.53050567E-03 -2.10977215E-03 -1.05188345E-03
  2.24262035E-04 -2.57046041E-04  6.71645043E-05 -1.06794708E-03 -1.53260016E-03
 -2.09331178E-03 -1.05150579E-03  2.25551805E-04  2.54873614E-04  7.08446498E-05
 -4.32893986E-02 -7.11019181E-02  2.27042167E-01  1.91707589E-03 -1.27741077E-01
  2.17302472E-01  3.27155108E-01  2.76249238E-03 -1.84069635E-01  3.15936410E-01
  2.53853860E-01  2.14141491E-03 -1.42673134E-01  2.79968190E-02  6.24507036E-02
  5.13344713E-04 -3.32808290E-02  1.13597511E-03  1.17853156E-02  1.31596992E-04
 -1.22415205E-02 -1.89307180E-04 -8.74070452E-02 -1.43168614E-01 -2.53595135E-02
 -2.10792739E-03  2.63057649E-02 -5.62724978E-05  1.69242002E-02 -8.76466882E-02
 -1.43103667E-01 -2.14236028E-02  7.58724970E-04 -1.15455844E-03  2.70757220E-04
 -3.11943749E-02 -6.00125660E-05 -9.87014463E-05 -5.82651039E-02 -1.93292549E-03
  2.90016765E-01  3.17984276E-04 -8.56314165E-02 -2.83944606E-03  4.26046411E-01
  3.50686085E-04 -7.89080170E-02 -2.62348512E-03  3.93599796E-01 -4.06267673E-04
 -2.10509787E-02 -6.84762378E-04  1.02540493E-01 -5.77498193E-03 -1.58378419E-02
  9.33618640E-05  3.31967451E-03  9.57099959E-05 -6.25821037E-05 -4.91276278E-05
  1.57653341E-04 -2.40313442E-04 -6.84030621E-03 -2.27487839E-04  3.40466892E-02
 -6.24585222E-05 -4.99500735E-05  1.64017413E-04 -2.42965347E-04 -6.84027248E-03
 -2.26329115E-04  3.40465109E-02  2.15948661E-05  3.93257158E-05 -2.71347126E-04
 -4.02055854E-06  4.40379942E-06 -1.95313880E-04 -3.64358647E-04 -6.47387724E-06
  9.54739581E-05  3.12020566E-04 -5.19082999E-04 -2.77554027E-06 -3.82534015E-04
 -6.29323587E-04  3.32431763E-04 -7.41368126E-06  8.80504462E-04 -1.33829393E-05
  4.25960267E-07 -6.82010868E-08  2.09461877E-05  2.97402973E-07  3.24101891E-05
  7.98335823E-05  1.11663148E-04 -2.03716224E-03 -2.57104823E-05 -2.78878307E-07
 -1.58227454E-05  6.98423170E-05  2.48033364E-04 -9.82177891E-04  3.16634052E-03
 -7.11550176E-06 -7.13353496E-07  2.35696990E-05  5.82591844E-07  9.92097869E-07
 -3.46055314E-06 -1.89927810E-05  2.60672778E-06 -4.08405519E-06 -4.03689165E-06
 -6.94117557E-05  3.48324971E-06  4.29859980E-06 -1.08278188E-05 -7.82164105E-05
  2.90836654E-06 -3.91473345E-05  2.18665576E-05  7.74122677E-04  8.67898252E-06
 -3.29629413E-07  7.67897558E-08  3.27689861E-06  2.40240383E-07  1.75096585E-05
  7.31477424E-05 -4.17729640E-04  2.22799105E-03 -2.52451645E-03 -7.58010188E-06
 -8.11821296E-07 -9.15391879E-07 -7.20472164E-05  4.18106951E-04 -2.20279492E-03
  2.54806575E-03  6.40591547E-06  3.75075179E-08  1.41696265E-06 -2.14696788E-07
 -3.87965055E-07 -1.03572211E-03  2.95730146E-01  2.59833701E-03  2.01934345E-06
 -1.52147501E-03  4.34434988E-01  3.81664351E-03 -3.35760884E-06 -1.40356816E-03
  4.01316515E-01  3.52712705E-03 -5.87892144E-06 -3.65992319E-04  1.05082669E-01
  9.14032531E-04  1.29418689E-04 -1.61465850E-04  8.49703754E-03  1.79719610E-04
 -1.49884405E-02  4.68108947E-07  5.64041364E-07  1.16827352E-05  6.65556866E-06
 -1.22106406E-04  3.48438696E-02  3.05681172E-04  8.95855421E-07  2.21239362E-06
  3.47148420E-06 -1.98551403E-05 -1.20574362E-04  3.46256707E-02  3.04547250E-04
 -2.30924723E-02 -3.90182459E-02 -4.43318865E-02  2.00757192E-04 -9.77067441E-03
  1.45439004E-01 -6.44455814E-02  2.92452631E-04 -1.42691667E-02  9.97253983E-02
 -9.40048141E-02  4.02204954E-04 -2.00774673E-02  7.65578292E-01 -6.31563961E-02
  3.27769874E-04 -1.29242024E-02  1.52422540E-04  6.95663159E-04 -2.59257442E-05
  3.05618897E-03 -2.26889961E-05 -7.88446247E-03 -8.83883625E-02 -1.16737614E-01
 -6.61073753E-01  1.14890727E-02  1.73364355E-02  2.31082510E-03 -7.88200766E-03
 -8.83351580E-02 -1.16934157E-01 -6.60921279E-01  1.13923531E-02 -1.74356048E-02
  2.06013475E-03 -8.37980050E-03 -1.41243386E-02 -2.05207542E-02 -1.22584709E-04
  8.12797677E-03  5.19599328E-02 -2.96416016E-02 -1.83163433E-04  1.23672819E-02
  4.14262457E-02 -4.47115677E-02 -2.25886474E-04  1.26696876E-02  2.49535500E-01
  7.35037399E-04 -2.29772952E-04  2.17773523E-02 -6.45904765E-04 -1.07688321E-03
  5.53544059E-07  6.87020475E-04  1.41283731E-05 -2.10279215E-03 -2.81879076E-02
 -4.22826592E-02 -2.52337258E-01  6.38641208E-04  6.99997158E-05 -7.69187705E-03
 -1.89234033E-03 -3.84204444E-02 -2.53944806E-02 -2.10066203E-01  7.62300353E-03
 -8.60321501E-06  3.49409952E-03 -8.17430969E-03 -1.38834809E-02 -3.33581040E-02
  7.47069466E-05 -5.30580690E-03  5.36198905E-02 -4.65430289E-02  8.36804507E-05
 -7.28093092E-03  2.51887064E-02 -7.05393485E-02  3.10695650E-04 -1.20264054E-02
  4.04415398E-01 -1.09868512E-02 -4.37333868E-04 -2.74282891E-03 -4.50741314E-04
  5.16874395E-04 -1.44225610E-05  2.57003984E-03 -1.72259409E-05 -2.35770259E-03
 -3.51373824E-02 -8.02130505E-02 -3.20354441E-01  4.83335869E-03  9.25443188E-03
  1.23450916E-03 -2.38837782E-03 -3.51709661E-02 -8.00225225E-02 -3.15948536E-01
  4.75374685E-03 -9.26760825E-03  1.09414600E-03  2.30198516E-02  3.89019393E-02