 Entering Gaussian System, Link 0=g16
 Input=dimer-scan-14-s08.com
 Output=dimer-scan-14-s08.log
 Initial command:
 /hpc/applications/gaussian/g16c/g16/l1.exe "/scratch/users/yunwent/wat-dimer/14-frq/Gau-21372.inp" -scrdir="/scratch/users/yunwent/wat-dimer/14-frq/"
 Entering Link 1 = /hpc/applications/gaussian/g16c/g16/l1.exe PID=     21373.
  
 Copyright (c) 1988-2019, Gaussian, Inc.  All Rights Reserved.
  
 This is part of the Gaussian(R) 16 program.  It is based on
 the Gaussian(R) 09 system (copyright 2009, Gaussian, Inc.),
 the Gaussian(R) 03 system (copyright 2003, Gaussian, Inc.),
 the Gaussian(R) 98 system (copyright 1998, Gaussian, Inc.),
 the Gaussian(R) 94 system (copyright 1995, Gaussian, Inc.),
 the Gaussian 92(TM) system (copyright 1992, Gaussian, Inc.),
 the Gaussian 90(TM) system (copyright 1990, Gaussian, Inc.),
 the Gaussian 88(TM) system (copyright 1988, Gaussian, Inc.),
 the Gaussian 86(TM) system (copyright 1986, Carnegie Mellon
 University), and the Gaussian 82(TM) system (copyright 1983,
 Carnegie Mellon University). Gaussian is a federally registered
 trademark of Gaussian, Inc.
  
 This software contains proprietary and confidential information,
 including trade secrets, belonging to Gaussian, Inc.
  
 This software is provided under written license and may be
 used, copied, transmitted, or stored only in accord with that
 written license.
  
 The following legend is applicable only to US Government
 contracts under FAR:
  
                    RESTRICTED RIGHTS LEGEND
  
 Use, reproduction and disclosure by the US Government is
 subject to restrictions as set forth in subparagraphs (a)
 and (c) of the Commercial Computer Software - Restricted
 Rights clause in FAR 52.227-19.
  
 Gaussian, Inc.
 340 Quinnipiac St., Bldg. 40, Wallingford CT 06492
  
  
 ---------------------------------------------------------------
 Warning -- This program may not be used in any manner that
 competes with the business of Gaussian, Inc. or will provide
 assistance to any competitor of Gaussian, Inc.  The licensee
 of this program is prohibited from giving any competitor of
 Gaussian, Inc. access to this program.  By using this program,
 the user acknowledges that Gaussian, Inc. is engaged in the
 business of creating and licensing software in the field of
 computational chemistry and represents and warrants to the
 licensee that it is not a competitor of Gaussian, Inc. and that
 it will not use this program in any manner prohibited above.
 ---------------------------------------------------------------
  

 Cite this work as:
 Gaussian 16, Revision C.01,
 M. J. Frisch, G. W. Trucks, H. B. Schlegel, G. E. Scuseria, 
 M. A. Robb, J. R. Cheeseman, G. Scalmani, V. Barone, 
 G. A. Petersson, H. Nakatsuji, X. Li, M. Caricato, A. V. Marenich, 
 J. Bloino, B. G. Janesko, R. Gomperts, B. Mennucci, H. P. Hratchian, 
 J. V. Ortiz, A. F. Izmaylov, J. L. Sonnenberg, D. Williams-Young, 
 F. Ding, F. Lipparini, F. Egidi, J. Goings, B. Peng, A. Petrone, 
 T. Henderson, D. Ranasinghe, V. G. Zakrzewski, J. Gao, N. Rega, 
 G. Zheng, W. Liang, M. Hada, M. Ehara, K. Toyota, R. Fukuda, 
 J. Hasegawa, M. Ishida, T. Nakajima, Y. Honda, O. Kitao, H. Nakai, 
 T. Vreven, K. Throssell, J. A. Montgomery, Jr., J. E. Peralta, 
 F. Ogliaro, M. J. Bearpark, J. J. Heyd, E. N. Brothers, K. N. Kudin, 
 V. N. Staroverov, T. A. Keith, R. Kobayashi, J. Normand, 
 K. Raghavachari, A. P. Rendell, J. C. Burant, S. S. Iyengar, 
 J. Tomasi, M. Cossi, J. M. Millam, M. Klene, C. Adamo, R. Cammi, 
 J. W. Ochterski, R. L. Martin, K. Morokuma, O. Farkas, 
 J. B. Foresman, and D. J. Fox, Gaussian, Inc., Wallingford CT, 2019.
 
 ******************************************
 Gaussian 16:  ES64L-G16RevC.01  3-Jul-2019
                16-May-2021 
 ******************************************
 %chk=dimer-scan-14-s08.chk
 %nprocshared=36
 Will use up to   36 processors via shared memory.
 %mem=80GB
 ------------------------------------------
 # freq rwb97xd/6-311++g(d,p) int=ultrafine
 ------------------------------------------
 1/10=4,30=1,38=1/1,3;
 2/12=2,17=6,18=5,40=1/2;
 3/5=4,6=6,7=1111,11=2,25=1,30=1,71=2,74=-58,75=-5,116=1,140=1/1,2,3;
 4//1;
 5/5=2,38=5,98=1/2;
 8/6=4,10=90,11=11/1;
 11/6=1,8=1,9=11,15=111,16=1/1,2,10;
 10/6=1/2;
 6/7=2,8=2,9=2,10=2,28=1/1;
 7/8=1,10=1,25=1/1,2,3,16;
 1/10=4,30=1/3;
 99//99;
 --------------------
 Energy: -26.09245376
 --------------------
 Symbolic Z-matrix:
 Charge =  0 Multiplicity = 1
 O                     2.73164   0.00047   0.02944 
 H                     3.30394   0.7588   -0.0911 
 H                     3.29962  -0.76277  -0.08009 
 O                    -2.94732  -0.00084  -0.06379 
 H                    -2.81276   0.00796   0.88431 
 H                    -2.0654   -0.00104  -0.43829 
 

 GradGradGradGradGradGradGradGradGradGradGradGradGradGradGradGradGradGrad
 Berny optimization.
 Initialization pass.
 Trust Radius=3.00D-01 FncErr=1.00D-07 GrdErr=1.00D-07 EigMax=2.50D+02 EigMin=1.00D-04
 Number of steps in this run=      2 maximum allowed number of steps=      2.
 GradGradGradGradGradGradGradGradGradGradGradGradGradGradGradGradGradGrad

                          Input orientation:                          
 ---------------------------------------------------------------------
 Center     Atomic      Atomic             Coordinates (Angstroms)
 Number     Number       Type             X           Y           Z
 ---------------------------------------------------------------------
      1          8           0        2.731643    0.000470    0.029436
      2          1           0        3.303941    0.758804   -0.091099
      3          1           0        3.299620   -0.762770   -0.080090
      4          8           0       -2.947318   -0.000839   -0.063791
      5          1           0       -2.812762    0.007961    0.884310
      6          1           0       -2.065400   -0.001044   -0.438286
 ---------------------------------------------------------------------
                    Distance matrix (angstroms):
                    1          2          3          4          5
     1  O    0.000000
     2  H    0.957666   0.000000
     3  H    0.957669   1.521620   0.000000
     4  O    5.679726   6.297304   6.293253   0.000000
     5  H    5.609928   6.239330   6.235808   0.957642   0.000000
     6  H    4.819791   5.433942   5.430651   0.958137   1.519175
                    6
     6  H    0.000000
 Stoichiometry    H4O2
 Framework group  C1[X(H4O2)]
 Deg. of freedom    12
 Full point group                 C1      NOp   1
 Largest Abelian subgroup         C1      NOp   1
 Largest concise Abelian subgroup C1      NOp   1
                         Standard orientation:                         
 ---------------------------------------------------------------------
 Center     Atomic      Atomic             Coordinates (Angstroms)
 Number     Number       Type             X           Y           Z
 ---------------------------------------------------------------------
      1          8           0       -2.731643   -0.000470    0.029436
      2          1           0       -3.303941   -0.758804   -0.091099
      3          1           0       -3.299620    0.762770   -0.080090
      4          8           0        2.947318    0.000839   -0.063791
      5          1           0        2.812762   -0.007961    0.884310
      6          1           0        2.065400    0.001044   -0.438286
 ---------------------------------------------------------------------
 Rotational constants (GHZ):         227.1567824           1.7217058           1.7210686
 Standard basis: 6-311++G(d,p) (5D, 7F)
 There are    74 symmetry adapted cartesian basis functions of A   symmetry.
 There are    72 symmetry adapted basis functions of A   symmetry.
    72 basis functions,   108 primitive gaussians,    74 cartesian basis functions
    10 alpha electrons       10 beta electrons
       nuclear repulsion energy        27.6815299535 Hartrees.
 NAtoms=    6 NActive=    6 NUniq=    6 SFac= 1.00D+00 NAtFMM=   60 NAOKFM=F Big=F
 Integral buffers will be    131072 words long.
 Raffenetti 2 integral format.
 Two-electron integral symmetry is turned on.
 Nuclear repulsion after empirical dispersion term =       27.6814440181 Hartrees.
 One-electron integrals computed using PRISM.
 NBasis=    72 RedAO= T EigKep=  3.47D-03  NBF=    72
 NBsUse=    72 1.00D-06 EigRej= -1.00D+00 NBFU=    72
 ExpMin= 3.60D-02 ExpMax= 8.59D+03 ExpMxC= 1.30D+03 IAcc=3 IRadAn=         5 AccDes= 0.00D+00
 Harris functional with IExCor= 4639 and IRadAn=       5 diagonalized for initial guess.
 HarFok:  IExCor= 4639 AccDes= 0.00D+00 IRadAn=         5 IDoV= 1 UseB2=F ITyADJ=14
 ICtDFT=  3500011 ScaDFX=  1.000000  1.000000  1.000000  1.000000
 FoFCou: FMM=F IPFlag=           0 FMFlag=      100000 FMFlg1=           0
         NFxFlg=           0 DoJE=T BraDBF=F KetDBF=T FulRan=T
         wScrn=  0.000000 ICntrl=       500 IOpCl=  0 I1Cent=   200000004 NGrid=           0
         NMat0=    1 NMatS0=      1 NMatT0=    0 NMatD0=    1 NMtDS0=    0 NMtDT0=    0
 Petite list used in FoFCou.
 Keep R1 ints in memory in canonical form, NReq=39419492.
 Requested convergence on RMS density matrix=1.00D-08 within 128 cycles.
 Requested convergence on MAX density matrix=1.00D-06.
 Requested convergence on             energy=1.00D-06.
 No special actions if energy rises.
 SCF Done:  E(RwB97XD) =  -152.865919455     A.U. after   10 cycles
            NFock= 10  Conv=0.94D-08     -V/T= 2.0028
 DoSCS=F DFT=T ScalE2(SS,OS)=  1.000000  1.000000
 Range of M.O.s used for correlation:     1    72
 NBasis=    72 NAE=    10 NBE=    10 NFC=     0 NFV=     0
 NROrb=     72 NOA=    10 NOB=    10 NVA=    62 NVB=    62
 Symmetrizing basis deriv contribution to polar:
 IMax=3 JMax=2 DiffMx= 0.00D+00
 G2DrvN: will do     7 centers at a time, making    1 passes.
 Calling FoFCou, ICntrl=  3107 FMM=F I1Cent=   0 AccDes= 0.00D+00.
 End of G2Drv F.D. properties file   721 does not exist.
 End of G2Drv F.D. properties file   722 does not exist.
 End of G2Drv F.D. properties file   788 does not exist.
          IDoAtm=111111
          Differentiating once with respect to electric field.
                with respect to dipole field.
          Differentiating once with respect to nuclear coordinates.
 Keep R1 ints in memory in canonical form, NReq=39298839.
          There are    21 degrees of freedom in the 1st order CPHF.  IDoFFX=6 NUNeed=     3.
     18 vectors produced by pass  0 Test12= 2.95D-15 4.76D-09 XBig12= 3.83D+00 8.32D-01.
 AX will form    18 AO Fock derivatives at one time.
     18 vectors produced by pass  1 Test12= 2.95D-15 4.76D-09 XBig12= 4.50D-01 1.86D-01.
     18 vectors produced by pass  2 Test12= 2.95D-15 4.76D-09 XBig12= 1.29D-02 2.89D-02.
     18 vectors produced by pass  3 Test12= 2.95D-15 4.76D-09 XBig12= 1.08D-04 2.72D-03.
     18 vectors produced by pass  4 Test12= 2.95D-15 4.76D-09 XBig12= 6.05D-07 1.86D-04.
     15 vectors produced by pass  5 Test12= 2.95D-15 4.76D-09 XBig12= 3.82D-09 1.61D-05.
     11 vectors produced by pass  6 Test12= 2.95D-15 4.76D-09 XBig12= 2.22D-11 1.13D-06.
      3 vectors produced by pass  7 Test12= 2.95D-15 4.76D-09 XBig12= 1.01D-13 6.49D-08.
 InvSVY:  IOpt=1 It=  1 EMax= 1.11D-15
 Solved reduced A of dimension   119 with    21 vectors.
 Isotropic polarizability for W=    0.000000       14.27 Bohr**3.
 End of Minotr F.D. properties file   721 does not exist.
 End of Minotr F.D. properties file   722 does not exist.
 End of Minotr F.D. properties file   788 does not exist.

 **********************************************************************

            Population analysis using the SCF Density.

 **********************************************************************

 Orbital symmetries:
       Occupied  (A) (A) (A) (A) (A) (A) (A) (A) (A) (A)
       Virtual   (A) (A) (A) (A) (A) (A) (A) (A) (A) (A) (A) (A)
                 (A) (A) (A) (A) (A) (A) (A) (A) (A) (A) (A) (A)
                 (A) (A) (A) (A) (A) (A) (A) (A) (A) (A) (A) (A)
                 (A) (A) (A) (A) (A) (A) (A) (A) (A) (A) (A) (A)
                 (A) (A) (A) (A) (A) (A) (A) (A) (A) (A) (A) (A)
                 (A) (A)
 The electronic state is 1-A.
 Alpha  occ. eigenvalues --  -19.25979 -19.24556  -1.12843  -1.11419  -0.63588
 Alpha  occ. eigenvalues --   -0.62102  -0.48836  -0.47416  -0.41357  -0.39938
 Alpha virt. eigenvalues --    0.03284   0.05320   0.07100   0.08618   0.20481
 Alpha virt. eigenvalues --    0.21213   0.21981   0.22311   0.22732   0.24123
 Alpha virt. eigenvalues --    0.24359   0.26668   0.28927   0.29322   0.30603
 Alpha virt. eigenvalues --    0.33936   0.57549   0.59044   0.62371   0.63945
 Alpha virt. eigenvalues --    1.03381   1.06577   1.07462   1.08056   1.08760
 Alpha virt. eigenvalues --    1.10647   1.30991   1.32567   1.33040   1.34544
 Alpha virt. eigenvalues --    1.43278   1.46633   1.54139   1.55409   1.74343
 Alpha virt. eigenvalues --    1.76020   2.07414   2.08766   2.21421   2.22799
 Alpha virt. eigenvalues --    2.48525   2.49911   2.65215   2.66876   3.17551
 Alpha virt. eigenvalues --    3.19106   3.22609   3.23922   3.39363   3.40833
 Alpha virt. eigenvalues --    3.76371   3.77411   3.97995   3.99908   5.03477
 Alpha virt. eigenvalues --    5.04661   5.41146   5.43762   5.73321   5.74580
 Alpha virt. eigenvalues --   49.99516  50.01165
          Condensed to atoms (all electrons):
               1          2          3          4          5          6
     1  O    7.868233   0.326584   0.326578   0.000012   0.000019  -0.000203
     2  H    0.326584   0.438741  -0.025879   0.000005   0.000003   0.000013
     3  H    0.326578  -0.025879   0.438746   0.000006   0.000003   0.000012
     4  O    0.000012   0.000005   0.000006   7.867771   0.322687   0.328831
     5  H    0.000019   0.000003   0.000003   0.322687   0.444793  -0.026114
     6  H   -0.000203   0.000013   0.000012   0.328831  -0.026114   0.436605
 Mulliken charges:
               1
     1  O   -0.521224
     2  H    0.260534
     3  H    0.260535
     4  O   -0.519311
     5  H    0.258610
     6  H    0.260856
 Sum of Mulliken charges =  -0.00000
 Mulliken charges with hydrogens summed into heavy atoms:
               1
     1  O   -0.000156
     4  O    0.000156
 APT charges:
               1
     1  O   -0.569004
     2  H    0.284540
     3  H    0.284526
     4  O   -0.568313
     5  H    0.282181
     6  H    0.286069
 Sum of APT charges =  -0.00000
 APT charges with hydrogens summed into heavy atoms:
               1
     1  O    0.000062
     4  O   -0.000062
 Electronic spatial extent (au):  <R**2>=            617.0252
 Charge=             -0.0000 electrons
 Dipole moment (field-independent basis, Debye):
    X=             -4.0850    Y=             -0.0068    Z=              0.6373  Tot=              4.1345
 Quadrupole moment (field-independent basis, Debye-Ang):
   XX=            -11.1101   YY=            -12.0424   ZZ=            -12.5314
   XY=             -0.0695   XZ=              5.4173   YZ=              0.0016
 Traceless Quadrupole moment (field-independent basis, Debye-Ang):
   XX=              0.7845   YY=             -0.1477   ZZ=             -0.6368
   XY=             -0.0695   XZ=              5.4173   YZ=              0.0016
 Octapole moment (field-independent basis, Debye-Ang**2):
  XXX=            -97.8358  YYY=              0.0078  ZZZ=              1.4014  XYY=            -11.3552
  XXY=             -0.0928  XXZ=              8.5850  XZZ=              6.7817  YZZ=             -0.0137
  YYZ=             -0.0288  XYZ=             -0.1348
 Hexadecapole moment (field-independent basis, Debye-Ang**3):
 XXXX=           -601.4648 YYYY=            -13.5576 ZZZZ=            -13.6648 XXXY=             -0.5042
 XXXZ=             62.0569 YYYX=             -0.0809 YYYZ=              0.0124 ZZZX=              6.4108
 ZZZY=             -0.0136 XXYY=            -96.6219 XXZZ=           -107.6552 YYZZ=             -5.1048
 XXYZ=              0.0595 YYXZ=              1.7444 ZZXY=             -0.0340
 N-N= 2.768144401806D+01 E-N=-4.171616712922D+02  KE= 1.524324204092D+02
  Exact polarizability:      13.820      -0.000      14.684       0.590       0.003      14.303
 Approx polarizability:      12.566       0.002      13.110       0.865       0.002      12.705
 Calling FoFJK, ICntrl=    100127 FMM=F ISym2X=0 I1Cent= 0 IOpClX= 0 NMat=1 NMatS=1 NMatT=0.
 Full mass-weighted force constant matrix:
 Low frequencies ---  -21.9855  -12.8637   -0.0016   -0.0014   -0.0013    9.9590
 Low frequencies ---   10.3397   48.7919   50.0974
 ******    1 imaginary frequencies (negative Signs) ****** 
 Diagonal vibrational polarizability:
      463.9318862     857.1303188    1571.7136578
 Harmonic frequencies (cm**-1), IR intensities (KM/Mole), Raman scattering
 activities (A**4/AMU), depolarization ratios for plane and unpolarized
 incident light, reduced masses (AMU), force constants (mDyne/A),
 and normal coordinates:
                      1                      2                      3
                      A                      A                      A
 Frequencies --    -21.9813                44.6287                48.8196
 Red. masses --      6.0755                 1.0224                 1.0521
 Frc consts  --      0.0017                 0.0012                 0.0015
 IR Inten    --      0.2529                25.0957                43.8108
  Atom  AN      X      Y      Z        X      Y      Z        X      Y      Z
     1   8    -0.41  -0.00   0.00     0.00   0.01  -0.01    -0.02   0.00   0.04
     2   1    -0.42   0.00   0.04     0.12  -0.02  -0.41     0.09  -0.01  -0.44
     3   1    -0.42   0.00   0.04    -0.14  -0.02   0.54     0.03  -0.01  -0.29
     4   8     0.41   0.00   0.00     0.00  -0.03   0.00    -0.01  -0.00  -0.03
     5   1     0.29   0.00  -0.02    -0.09   0.65  -0.00     0.59   0.10   0.06
     6   1     0.47  -0.00  -0.12     0.04  -0.25  -0.08    -0.24  -0.04   0.53
                      4                      5                      6
                      A                      A                      A
 Frequencies --     64.1753                83.6746               171.2554
 Red. masses --      1.0680                 1.1249                 1.0828
 Frc consts  --      0.0026                 0.0046                 0.0187
 IR Inten    --     29.0027               392.8819               374.4466
  Atom  AN      X      Y      Z        X      Y      Z        X      Y      Z
     1   8    -0.00  -0.06  -0.00     0.01   0.00  -0.09    -0.00  -0.03  -0.00
     2   1    -0.54   0.36  -0.05    -0.11  -0.01   0.57    -0.20   0.12   0.00
     3   1     0.55   0.36   0.06    -0.13  -0.01   0.55     0.20   0.12  -0.00
     4   8    -0.00   0.03  -0.00    -0.01  -0.00  -0.01     0.00  -0.06  -0.00
     5   1     0.02   0.05   0.00     0.41  -0.01   0.05    -0.00   0.38   0.00
     6   1    -0.01  -0.36   0.01    -0.17   0.01   0.37    -0.00   0.86   0.01
                      7                      8                      9
                      A                      A                      A
 Frequencies --   1612.5555              1616.0107              3896.3529
 Red. masses --      1.0827                 1.0827                 1.0453
 Frc consts  --      1.6588                 1.6659                 9.3501
 IR Inten    --     71.2639                69.8139                15.8164
  Atom  AN      X      Y      Z        X      Y      Z        X      Y      Z
     1   8    -0.07   0.00  -0.01     0.00  -0.00   0.00     0.00  -0.00   0.00
     2   1     0.55  -0.43   0.11    -0.01   0.00  -0.00    -0.02  -0.03  -0.00
     3   1     0.55   0.43   0.11    -0.01  -0.00  -0.00    -0.02   0.03  -0.00
     4   8    -0.00  -0.00   0.00    -0.06  -0.00   0.03     0.04   0.00  -0.02
     5   1     0.01   0.00   0.00     0.70   0.00   0.10    -0.06  -0.01   0.68
     6   1     0.00   0.00  -0.01     0.28   0.01  -0.65    -0.65   0.00  -0.32
                     10                     11                     12
                      A                      A                      A
 Frequencies --   3898.2477              4002.8970              4006.5131
 Red. masses --      1.0451                 1.0823                 1.0826
 Frc consts  --      9.3575                10.2176                10.2384
 IR Inten    --     12.6958                64.4086                65.3146
  Atom  AN      X      Y      Z        X      Y      Z        X      Y      Z
     1   8     0.05  -0.00   0.01     0.00   0.00  -0.00    -0.00  -0.07  -0.00
     2   1    -0.39  -0.58  -0.08    -0.00  -0.00   0.00     0.42   0.56   0.09
     3   1    -0.39   0.59  -0.07    -0.00   0.00   0.00    -0.42   0.56  -0.08
     4   8    -0.00  -0.00   0.00    -0.03   0.00  -0.06    -0.00  -0.00  -0.00
     5   1     0.00   0.00  -0.04    -0.10  -0.01   0.72    -0.00   0.00   0.00
     6   1     0.04  -0.00   0.02     0.63  -0.00   0.27     0.00   0.00   0.00

 -------------------
 - Thermochemistry -
 -------------------
 Temperature   298.150 Kelvin.  Pressure   1.00000 Atm.
 Atom     1 has atomic number  8 and mass  15.99491
 Atom     2 has atomic number  1 and mass   1.00783
 Atom     3 has atomic number  1 and mass   1.00783
 Atom     4 has atomic number  8 and mass  15.99491
 Atom     5 has atomic number  1 and mass   1.00783
 Atom     6 has atomic number  1 and mass   1.00783
 Molecular mass:    36.02113 amu.
 Principal axes and moments of inertia in atomic units:
                           1         2         3
     Eigenvalues --     7.944911048.228591048.61666
           X            0.99997  -0.00012   0.00726
           Y            0.00010   1.00000   0.00273
           Z           -0.00726  -0.00273   0.99997
 This molecule is an asymmetric top.
 Rotational symmetry number  1.
 Rotational temperatures (Kelvin)     10.90181     0.08263     0.08260
 Rotational constants (GHZ):         227.15678     1.72171     1.72107
    1 imaginary frequencies ignored.
 Zero-point vibrational energy     116307.7 (Joules/Mol)
                                   27.79821 (Kcal/Mol)
 Warning -- explicit consideration of   5 degrees of freedom as
           vibrations may cause significant error
 Vibrational temperatures:     64.21    70.24    92.33   120.39   246.40
          (Kelvin)           2320.11  2325.08  5605.98  5608.71  5759.28
                             5764.48
 
 Zero-point correction=                           0.044299 (Hartree/Particle)
 Thermal correction to Energy=                    0.051000
 Thermal correction to Enthalpy=                  0.051945
 Thermal correction to Gibbs Free Energy=         0.013541
 Sum of electronic and zero-point Energies=           -152.821620
 Sum of electronic and thermal Energies=              -152.814919
 Sum of electronic and thermal Enthalpies=            -152.813975
 Sum of electronic and thermal Free Energies=         -152.852379
 
                     E (Thermal)             CV                S
                      KCal/Mol        Cal/Mol-Kelvin    Cal/Mol-Kelvin
 Total                   32.003             15.829             80.828
 Electronic               0.000              0.000              0.000
 Translational            0.889              2.981             36.674
 Rotational               0.889              2.981             23.683
 Vibrational             30.226              9.867             20.470
 Vibration     1          0.595              1.980              5.042
 Vibration     2          0.595              1.978              4.865
 Vibration     3          0.597              1.971              4.324
 Vibration     4          0.601              1.960              3.803
 Vibration     5          0.626              1.878              2.422
                       Q            Log10(Q)             Ln(Q)
 Total Bot       0.591199D-06         -6.228266        -14.341114
 Total V=0       0.140593D+15         14.147964         32.576890
 Vib (Bot)       0.207978D-17        -17.681983        -40.714270
 Vib (Bot)    1  0.463434D+01          0.665988          1.533494
 Vib (Bot)    2  0.423490D+01          0.626843          1.443360
 Vib (Bot)    3  0.321617D+01          0.507340          1.168193
 Vib (Bot)    4  0.245981D+01          0.390901          0.900083
 Vib (Bot)    5  0.117627D+01          0.070508          0.162350
 Vib (V=0)       0.494592D+03          2.694247          6.203734
 Vib (V=0)    1  0.516124D+01          0.712754          1.641176
 Vib (V=0)    2  0.476431D+01          0.678000          1.561154
 Vib (V=0)    3  0.375481D+01          0.574588          1.323037
 Vib (V=0)    4  0.301011D+01          0.478582          1.101977
 Vib (V=0)    5  0.177813D+01          0.249963          0.575562
 Electronic      0.100000D+01          0.000000          0.000000
 Translational   0.849747D+07          6.929290         15.955280
 Rotational      0.334523D+05          4.524427         10.417877
 ***** Axes restored to original set *****
 -------------------------------------------------------------------
 Center     Atomic                   Forces (Hartrees/Bohr)
 Number     Number              X              Y              Z
 -------------------------------------------------------------------
      1        8          -0.000382594   -0.000002404   -0.000000102
      2        1           0.000008263   -0.000006183   -0.000003552
      3        1           0.000006337    0.000008902   -0.000002391
      4        8           0.000352262    0.000004065    0.000005936
      5        1           0.000008213   -0.000001907   -0.000004872
      6        1           0.000007519   -0.000002473    0.000004980
 -------------------------------------------------------------------
 Cartesian Forces:  Max     0.000382594 RMS     0.000122690

 GradGradGradGradGradGradGradGradGradGradGradGradGradGradGradGradGradGrad
 Berny optimization.
 Search for a local minimum.
 Step number   1 out of a maximum of    2
 All quantities printed in internal units (Hartrees-Bohrs-Radians)
 Second derivative matrix not updated -- analytic derivatives used.
 The second derivative matrix:
                          X1        Y1        Z1        X2        Y2
           X1           0.44834
           Y1           0.00013   0.71616
           Z1          -0.09023  -0.00478   0.01874
           X2          -0.22561  -0.26813   0.04717   0.21409
           Y2          -0.21032  -0.35596   0.04478   0.23940   0.38495
           Z2           0.04680   0.05645  -0.01002  -0.04469  -0.05084
           X3          -0.22287   0.26800   0.04305   0.01151  -0.02905
           Y3           0.21019  -0.36004  -0.04000   0.02879  -0.02902
           Z3           0.04345  -0.05167  -0.00861  -0.00249   0.00606
           X4          -0.00022  -0.00000  -0.00002   0.00003   0.00003
           Y4           0.00000   0.00043  -0.00000   0.00015  -0.00013
           Z4           0.00004  -0.00000   0.00029  -0.00003  -0.00000
           X5           0.00013   0.00000  -0.00007  -0.00001  -0.00002
           Y5          -0.00000  -0.00020   0.00000  -0.00007   0.00006
           Z5          -0.00008   0.00000  -0.00010   0.00002   0.00001
           X6           0.00023   0.00000   0.00011  -0.00001  -0.00004
           Y6          -0.00000  -0.00038   0.00000  -0.00014   0.00010
           Z6           0.00002   0.00000  -0.00031   0.00003  -0.00000
                          Z2        X3        Y3        Z3        X4
           Z2           0.00944
           X3          -0.00211   0.21135
           Y3          -0.00562  -0.23901   0.38903
           Z3           0.00055  -0.04096   0.04561   0.00803
           X4           0.00001   0.00003  -0.00003   0.00001   0.52669
           Y4          -0.00001  -0.00015  -0.00013   0.00001   0.00092
           Z4          -0.00010  -0.00003   0.00000  -0.00010  -0.10438
           X5           0.00002  -0.00001   0.00002   0.00002  -0.05460
           Y5           0.00002   0.00007   0.00006  -0.00002  -0.00058
           Z5           0.00003   0.00001  -0.00001   0.00004  -0.04396
           X6          -0.00003  -0.00001   0.00004  -0.00003  -0.47194
           Y6          -0.00001   0.00014   0.00010   0.00001  -0.00034
           Z6           0.00010   0.00003   0.00000   0.00010   0.14834
                          Y4        Z4        X5        Y5        Z5
           Y4           0.00126
           Z4           0.00539   0.65402
           X5          -0.00110  -0.10308   0.05246
           Y5          -0.00049  -0.00508   0.00068   0.00027
           Z5          -0.00488  -0.53627   0.05589   0.00509   0.55580
           X6           0.00018   0.20747   0.00203  -0.00010  -0.01188
           Y6          -0.00094  -0.00030   0.00042   0.00030  -0.00022
           Z6          -0.00051  -0.11785   0.04724  -0.00001  -0.01951
                          X6        Y6        Z6
           X6           0.46970
           Y6          -0.00008   0.00081
           Z6          -0.19564   0.00052   0.13747
 ITU=  0
     Eigenvalues ---   -0.00011   0.00008   0.00012   0.00022   0.00058
     Eigenvalues ---    0.00185   0.14650   0.15856   0.81399   0.91255
     Eigenvalues ---    1.05376   1.08556
 Eigenvalue     1 is  -1.12D-04 should be greater than     0.000000 Eigenvector:
                          X6        X4        X1        X2        X3
   1                    0.47381   0.42353  -0.40837  -0.40765  -0.40667
                          X5        Z6        Z4        Z5        Z1
   1                    0.29764   0.09206  -0.02566  -0.00787  -0.00448
 Quadratic step=2.722D+00 exceeds max=3.000D-01 adjusted using Lamda=-9.131D-04.
 Angle between NR and scaled steps=   4.79 degrees.
 Angle between quadratic step and forces=  53.24 degrees.
 Linear search not attempted -- first point.
 B after Tr=     0.000429    0.000165   -0.007665
         Rot=    1.000000   -0.000040   -0.000115    0.000027 Ang=  -0.01 deg.
 Variable       Old X    -DE/DX   Delta X   Delta X   Delta X     New X
                                 (Linear)    (Quad)   (Total)
    X1        5.16206  -0.00038   0.00000  -0.12651  -0.12608   5.03598
    Y1        0.00089  -0.00000   0.00000  -0.00024  -0.00034   0.00055
    Z1        0.05563  -0.00000   0.00000  -0.01855  -0.02737   0.02826
    X2        6.24354   0.00001   0.00000  -0.11778  -0.11731   6.12623
    Y2        1.43393  -0.00001   0.00000  -0.00023  -0.00038   1.43355
    Z2       -0.17215  -0.00000   0.00000   0.02119   0.01223  -0.15992
    X3        6.23538   0.00001   0.00000  -0.11671  -0.11639   6.11899
    Y3       -1.44143   0.00001   0.00000   0.00092   0.00077  -1.44066
    Z3       -0.15135  -0.00000   0.00000   0.02238   0.01319  -0.13816
    X4       -5.56962   0.00035   0.00000   0.12798   0.12838  -5.44124
    Y4       -0.00159   0.00000   0.00000   0.00068   0.00114  -0.00045
    Z4       -0.12055   0.00001   0.00000  -0.00696  -0.01338  -0.13393
    X5       -5.31535   0.00001   0.00000   0.08692   0.08773  -5.22762
    Y5        0.01504  -0.00000   0.00000  -0.00127  -0.00096   0.01408
    Z5        1.67110  -0.00000   0.00000  -0.00122  -0.00769   1.66342
    X6       -3.90304   0.00001   0.00000   0.14341   0.14366  -3.75938
    Y6       -0.00197  -0.00000   0.00000  -0.00065  -0.00022  -0.00219
    Z6       -0.82824   0.00000   0.00000   0.02981   0.02301  -0.80523
         Item               Value     Threshold  Converged?
 Maximum Force            0.000383     0.000450     YES
 RMS     Force            0.000123     0.000300     YES
 Maximum Displacement     0.143656     0.001800     NO 
 RMS     Displacement     0.070657     0.001200     NO 
 Predicted change in Energy=-9.798582D-05
 GradGradGradGradGradGradGradGradGradGradGradGradGradGradGradGradGradGrad


 ----------------------------------------------------------------------

 Electric dipole moment (input orientation):
 (Debye = 10**-18 statcoulomb cm , SI units = C m)
                  (au)            (Debye)         (10**-30 SI)
   Tot        0.162662D+01      0.413446D+01      0.137911D+02
   x          0.160718D+01      0.408505D+01      0.136263D+02
   y          0.269151D-02      0.684113D-02      0.228196D-01
   z          0.250724D+00      0.637278D+00      0.212573D+01

 Dipole polarizability, Alpha (input orientation).
 (esu units = cm**3 , SI units = C**2 m**2 J**-1)
 Alpha(0;0):
               (au)            (10**-24 esu)      (10**-40 SI)
   iso        0.142689D+02      0.211443D+01      0.235262D+01
   aniso      0.126684D+01      0.187726D+00      0.208874D+00
   xx         0.138202D+02      0.204794D+01      0.227864D+01
   yx        -0.153550D-03     -0.227538D-04     -0.253170D-04
   yy         0.146837D+02      0.217591D+01      0.242102D+01
   zx        -0.589634D+00     -0.873747D-01     -0.972175D-01
   zy        -0.328735D-02     -0.487135D-03     -0.542011D-03
   zz         0.143026D+02      0.211943D+01      0.235818D+01

 ----------------------------------------------------------------------

 Dipole orientation:
     8          0.74071886         -0.00651614          5.10893551
     1          1.13044531          1.42536896          6.14475795
     1          1.11270439         -1.45000522          6.13513899
     8         -0.73939474          0.00650359         -5.52163896
     1         -2.47046174          0.01980838         -4.99421508
     1          0.21672816          0.00492640         -3.98405757

 Electric dipole moment (dipole orientation):
 (Debye = 10**-18 statcoulomb cm , SI units = C m)
                  (au)            (Debye)         (10**-30 SI)
   Tot        0.162662D+01      0.413446D+01      0.137911D+02
   x          0.000000D+00      0.000000D+00      0.000000D+00
   y          0.000000D+00      0.000000D+00      0.000000D+00
   z          0.162662D+01      0.413446D+01      0.137911D+02

 Dipole polarizability, Alpha (dipole orientation).
 (esu units = cm**3 , SI units = C**2 m**2 J**-1)
 Alpha(0;0):
               (au)            (10**-24 esu)      (10**-40 SI)
   iso        0.142689D+02      0.211443D+01      0.235262D+01
   aniso      0.126684D+01      0.187726D+00      0.208874D+00
   xx         0.144707D+02      0.214434D+01      0.238590D+01
   yx         0.211497D-02      0.313406D-03      0.348712D-03
   yy         0.146837D+02      0.217591D+01      0.242102D+01
   zx         0.488147D+00      0.723359D-01      0.804846D-01
   zy         0.174014D-02      0.257863D-03      0.286911D-03
   zz         0.136521D+02      0.202303D+01      0.225092D+01

 ----------------------------------------------------------------------
 Unable to Open any file for archive entry.
 1\1\GINC-B001\Freq\RwB97XD\6-311++G(d,p)\H4O2\YUNWENT\16-May-2021\0\\#
  freq rwb97xd/6-311++g(d,p) int=ultrafine\\Energy: -26.09245376\\0,1\O
 ,2.731643,0.00047,0.029436\H,3.303941,0.758804,-0.091099\H,3.29962,-0.
 76277,-0.08009\O,-2.947318,-0.000839,-0.063791\H,-2.812762,0.007961,0.
 88431\H,-2.0654,-0.001044,-0.438286\\Version=ES64L-G16RevC.01\State=1-
 A\HF=-152.8659195\RMSD=9.402e-09\RMSF=1.227e-04\ZeroPoint=0.0442993\Th
 ermal=0.0510004\ETot=-152.814919\HTot=-152.8139748\GTot=-152.8523788\D
 ipole=1.607182,0.0026915,0.2507244\DipoleDeriv=-0.4051826,-0.0009592,-
 0.0751956,-0.0009918,-0.5429052,-0.0013459,-0.0783033,-0.0013528,-0.75
 89234,0.1996064,-0.085163,0.0385234,-0.040598,0.2734786,0.0091829,0.03
 92894,0.0181984,0.3805354,0.2003459,0.0861279,0.0372321,0.041591,0.272
 3348,-0.0078396,0.0385963,-0.0168496,0.380897,-0.4281375,0.0018697,0.0
 722504,0.001894,-0.775514,0.0026612,0.0717662,0.002656,-0.5012862,0.26
 89988,-0.0012488,-0.0935021,-0.0008476,0.3865211,-0.002042,-0.0470874,
 -0.0018751,0.1910242,0.1643692,-0.0006267,0.0206918,-0.0010475,0.38608
 47,-0.0006165,-0.0242612,-0.0007769,0.3077529\Polar=13.8201936,-0.0001
 536,14.6837374,-0.5896336,-0.0032873,14.3026196\Quadrupole=0.5832664,-
 0.1098341,-0.4734323,-0.0516694,-4.0276642,-0.0011565\PG=C01 [X(H4O2)]
 \NImag=1\\0.44833517,0.00012674,0.71616056,-0.09022747,-0.00477990,0.0
 1874467,-0.22561167,-0.26812746,0.04716673,0.21409109,-0.21031982,-0.3
 5596067,0.04477977,0.23939747,0.38494895,0.04679747,0.05645103,-0.0100
 1885,-0.04468979,-0.05083532,0.00944073,-0.22286809,0.26800088,0.04304
 748,0.01151417,-0.02904831,-0.00210614,0.21134743,0.21019384,-0.360044
 04,-0.04000014,0.02878679,-0.02902327,-0.00561545,-0.23901003,0.389032
 56,0.04344968,-0.05167148,-0.00861246,-0.00249204,0.00605626,0.0005461
 1,-0.04095564,0.04561499,0.00803429,-0.00021851,-0.00000177,-0.0000206
 8,0.00003130,0.00002758,0.00001184,0.00003281,-0.00002646,0.00001216,0
 .52669225,0.00000177,0.00043054,-0.00000122,0.00015011,-0.00012839,-0.
 00000566,-0.00015202,-0.00012801,0.00000627,0.00092117,0.00125811,0.00
 004093,-0.00000139,0.00029129,-0.00002771,-0.00000320,-0.00010084,-0.0
 0002538,0.00000388,-0.00010147,-0.10437830,0.00538702,0.65402438,0.000
 12916,0.00000004,-0.00007130,-0.00001290,-0.00001692,0.00001521,-0.000
 01345,0.00001677,0.00001517,-0.05460012,-0.00109647,-0.10308144,0.0524
 6420,-0.00000119,-0.00020415,0.00000115,-0.00006859,0.00006076,0.00001
 560,0.00006941,0.00006030,-0.00001630,-0.00057739,-0.00049139,-0.00508
 441,0.00067585,0.00026988,-0.00007896,0.00000086,-0.00009563,0.0000150
 3,0.00000577,0.00003469,0.00001416,-0.00000618,0.00003511,-0.04396164,
 -0.00487796,-0.53626709,0.05588709,0.00509303,0.55580091,0.00023395,0.
 00000157,0.00010526,-0.00001198,-0.00004000,-0.00002860,-0.00001286,0.
 00003908,-0.00002933,-0.47193773,0.00017544,0.20747190,0.00203311,-0.0
 0009809,-0.01187567,0.46969552,-0.00000132,-0.00038224,0.00000034,-0.0
 0013832,0.00010261,-0.00001019,0.00014007,0.00010246,0.00001027,-0.000
 34314,-0.00094086,-0.00030189,0.00042072,0.00030460,-0.00021552,-0.000
 07800,0.00081343,0.00001836,0.00000089,-0.00030901,0.00002779,-0.00000
 328,0.00009817,0.00002551,0.00000290,0.00009843,0.14833663,-0.00050845
 ,-0.11784625,0.04723527,-0.00000906,-0.01950799,-0.19564355,0.00051699
 ,0.13746665\\0.00038259,0.00000240,0.00000010,-0.00000826,0.00000618,0
 .00000355,-0.00000634,-0.00000890,0.00000239,-0.00035226,-0.00000406,-
 0.00000594,-0.00000821,0.00000191,0.00000487,-0.00000752,0.00000247,-0
 .00000498\\\@
 The archive entry for this job was punched.


 NECESSARY EVIL: ONE WE LIKE TOO MUCH TO RELINQUISH.
 Job cpu time:       0 days  0 hours  2 minutes 55.0 seconds.
 Elapsed time:       0 days  0 hours  0 minutes  5.8 seconds.
 File lengths (MBytes):  RWF=      7 Int=      0 D2E=      0 Chk=      1 Scr=      1
 Normal termination of Gaussian 16 at Sun May 16 12:48:29 2021.
