Energy: -26.09245376                                                    
Freq      RwB97XD                                                     6-311++G(d,p)       
Number of atoms                            I                6
Info1-9                                    I   N=           9
          17          16           0           0           0         100
           6          18       -5802
Full Title                                 C   N=           2
Energy: -26.09245376    
Route                                      C   N=           4
# freq rwb97xd/6-311++g(d,p) int=ultrafine      
Charge                                     I                0
Multiplicity                               I                1
Number of electrons                        I               20
Number of alpha electrons                  I               10
Number of beta electrons                   I               10
Number of basis functions                  I               72
Number of independent functions            I               72
Number of point charges in /Mol/           I                0
Number of translation vectors              I                0
Atomic numbers                             I   N=           6
           8           1           1           8           1           1
Nuclear charges                            R   N=           6
  8.00000000E+00  1.00000000E+00  1.00000000E+00  8.00000000E+00  1.00000000E+00
  1.00000000E+00
Current cartesian coordinates              R   N=          18
 -4.04866471E+00 -8.78855830E-03  1.03470064E-01 -5.06583247E+00 -1.40837075E+00
 -4.27488175E-01 -5.06443219E+00  1.45912235E+00 -1.94558643E-01  4.41226654E+00
  1.70704728E-02 -1.71955629E-01  4.60040956E+00 -1.64433942E-01  1.61853153E+00
  2.62104050E+00  4.74270293E-02 -4.48600195E-01
Number of symbols in /Mol/                 I                0
Int Atom Types                             I   N=           6
           0           0           0           0           0           0
Force Field                                I                0
Atom Types                                 C   N=           6
                                                            
            
MM charges                                 R   N=           6
  0.00000000E+00  0.00000000E+00  0.00000000E+00  0.00000000E+00  0.00000000E+00
  0.00000000E+00
Integer atomic weights                     I   N=           6
          16           1           1          16           1           1
Real atomic weights                        R   N=           6
  1.59949146E+01  1.00782504E+00  1.00782504E+00  1.59949146E+01  1.00782504E+00
  1.00782504E+00
Atom fragment info                         I   N=           6
           0           0           0           0           0           0
Atom residue num                           I   N=           6
           0           0           0           0           0           0
Nuclear spins                              I   N=           6
           0           1           1           0           1           1
Nuclear ZEff                               R   N=           6
 -5.60000000E+00 -1.00000000E+00 -1.00000000E+00 -5.60000000E+00 -1.00000000E+00
 -1.00000000E+00
Nuclear ZNuc                               R   N=           6
  8.00000000E+00  1.00000000E+00  1.00000000E+00  8.00000000E+00  1.00000000E+00
  1.00000000E+00
Nuclear QMom                               R   N=           6
  0.00000000E+00  0.00000000E+00  0.00000000E+00  0.00000000E+00  0.00000000E+00
  0.00000000E+00
Nuclear GFac                               R   N=           6
  0.00000000E+00  2.79284600E+00  2.79284600E+00  0.00000000E+00  2.79284600E+00
  2.79284600E+00
MicOpt                                     I   N=           6
          -1          -1          -1          -1          -1          -1
Number of residues                         I                0
Number of secondary structures             I                0
SymInf integers                            I   N=          26
           1           1           1           1           1           0
           0           0           0           0           0           0
           0           0           0           0           0           0
           0           0           0           0           0           0
           0           0
RotTr to input orientation                 R   N=          12
 -1.00000000E+00  2.22638035E-09  0.00000000E+00 -2.22638035E-09 -1.00000000E+00
  0.00000000E+00  0.00000000E+00  0.00000000E+00  1.00000000E+00 -1.88972613E-07
  5.66917837E-07 -2.77555756E-18
Number of contracted shells                I               32
Number of primitive shells                 I               54
Pure/Cartesian d shells                    I                0
Pure/Cartesian f shells                    I                0
Highest angular momentum                   I                2
Largest degree of contraction              I                6
Shell types                                I   N=          32
           0          -1          -1          -1          -1          -2
           0           0           0           0           1           0
           0           0           0           1           0          -1
          -1          -1          -1          -2           0           0
           0           0           1           0           0           0
           0           1
Number of primitives per shell             I   N=          32
           6           3           1           1           1           1
           3           1           1           1           1           3
           1           1           1           1           6           3
           1           1           1           1           3           1
           1           1           1           3           1           1
           1           1
Shell to atom map                          I   N=          32
           1           1           1           1           1           1
           2           2           2           2           2           3
           3           3           3           3           4           4
           4           4           4           4           5           5
           5           5           5           6           6           6
           6           6
Primitive exponents                        R   N=          54
  8.58850000E+03  1.29723000E+03  2.99296000E+02  8.73771000E+01  2.56789000E+01
  3.74004000E+00  4.21175000E+01  9.62837000E+00  2.85332000E+00  9.05661000E-01
  2.55611000E-01  8.45000000E-02  1.29200000E+00  3.38650000E+01  5.09479000E+00
  1.15879000E+00  3.25840000E-01  1.02741000E-01  3.60000000E-02  7.50000000E-01
  3.38650000E+01  5.09479000E+00  1.15879000E+00  3.25840000E-01  1.02741000E-01
  3.60000000E-02  7.50000000E-01  8.58850000E+03  1.29723000E+03  2.99296000E+02
  8.73771000E+01  2.56789000E+01  3.74004000E+00  4.21175000E+01  9.62837000E+00
  2.85332000E+00  9.05661000E-01  2.55611000E-01  8.45000000E-02  1.29200000E+00
  3.38650000E+01  5.09479000E+00  1.15879000E+00  3.25840000E-01  1.02741000E-01
  3.60000000E-02  7.50000000E-01  3.38650000E+01  5.09479000E+00  1.15879000E+00
  3.25840000E-01  1.02741000E-01  3.60000000E-02  7.50000000E-01
Contraction coefficients                   R   N=          54
  1.89515008E-03  1.43859006E-02  7.07320031E-02  2.40001011E-01  5.94797026E-01
  2.80802012E-01  1.13889012E-01  9.20811101E-01 -3.27447036E-03  1.00000000E+00
  1.00000000E+00  1.00000000E+00  1.00000000E+00  2.54938145E-02  1.90373109E-01
  8.52161486E-01  1.00000000E+00  1.00000000E+00  1.00000000E+00  1.00000000E+00
  2.54938145E-02  1.90373109E-01  8.52161486E-01  1.00000000E+00  1.00000000E+00
  1.00000000E+00  1.00000000E+00  1.89515008E-03  1.43859006E-02  7.07320031E-02
  2.40001011E-01  5.94797026E-01  2.80802012E-01  1.13889012E-01  9.20811101E-01
 -3.27447036E-03  1.00000000E+00  1.00000000E+00  1.00000000E+00  1.00000000E+00
  2.54938145E-02  1.90373109E-01  8.52161486E-01  1.00000000E+00  1.00000000E+00
  1.00000000E+00  1.00000000E+00  2.54938145E-02  1.90373109E-01  8.52161486E-01
  1.00000000E+00  1.00000000E+00  1.00000000E+00  1.00000000E+00
P(S=P) Contraction coefficients            R   N=          54
  0.00000000E+00  0.00000000E+00  0.00000000E+00  0.00000000E+00  0.00000000E+00
  0.00000000E+00  3.65113974E-02  2.37152983E-01  8.19701941E-01  1.00000000E+00
  1.00000000E+00  1.00000000E+00  0.00000000E+00  0.00000000E+00  0.00000000E+00
  0.00000000E+00  0.00000000E+00  0.00000000E+00  0.00000000E+00  0.00000000E+00
  0.00000000E+00  0.00000000E+00  0.00000000E+00  0.00000000E+00  0.00000000E+00
  0.00000000E+00  0.00000000E+00  0.00000000E+00  0.00000000E+00  0.00000000E+00
  0.00000000E+00  0.00000000E+00  0.00000000E+00  3.65113974E-02  2.37152983E-01
  8.19701941E-01  1.00000000E+00  1.00000000E+00  1.00000000E+00  0.00000000E+00
  0.00000000E+00  0.00000000E+00  0.00000000E+00  0.00000000E+00  0.00000000E+00
  0.00000000E+00  0.00000000E+00  0.00000000E+00  0.00000000E+00  0.00000000E+00
  0.00000000E+00  0.00000000E+00  0.00000000E+00  0.00000000E+00
Coordinates of each shell                  R   N=          96
 -4.04866471E+00 -8.78855830E-03  1.03470064E-01 -4.04866471E+00 -8.78855830E-03
  1.03470064E-01 -4.04866471E+00 -8.78855830E-03  1.03470064E-01 -4.04866471E+00
 -8.78855830E-03  1.03470064E-01 -4.04866471E+00 -8.78855830E-03  1.03470064E-01
 -4.04866471E+00 -8.78855830E-03  1.03470064E-01 -5.06583247E+00 -1.40837075E+00
 -4.27488175E-01 -5.06583247E+00 -1.40837075E+00 -4.27488175E-01 -5.06583247E+00
 -1.40837075E+00 -4.27488175E-01 -5.06583247E+00 -1.40837075E+00 -4.27488175E-01
 -5.06583247E+00 -1.40837075E+00 -4.27488175E-01 -5.06443219E+00  1.45912235E+00
 -1.94558643E-01 -5.06443219E+00  1.45912235E+00 -1.94558643E-01 -5.06443219E+00
  1.45912235E+00 -1.94558643E-01 -5.06443219E+00  1.45912235E+00 -1.94558643E-01
 -5.06443219E+00  1.45912235E+00 -1.94558643E-01  4.41226654E+00  1.70704728E-02
 -1.71955629E-01  4.41226654E+00  1.70704728E-02 -1.71955629E-01  4.41226654E+00
  1.70704728E-02 -1.71955629E-01  4.41226654E+00  1.70704728E-02 -1.71955629E-01
  4.41226654E+00  1.70704728E-02 -1.71955629E-01  4.41226654E+00  1.70704728E-02
 -1.71955629E-01  4.60040956E+00 -1.64433942E-01  1.61853153E+00  4.60040956E+00
 -1.64433942E-01  1.61853153E+00  4.60040956E+00 -1.64433942E-01  1.61853153E+00
  4.60040956E+00 -1.64433942E-01  1.61853153E+00  4.60040956E+00 -1.64433942E-01
  1.61853153E+00  2.62104050E+00  4.74270293E-02 -4.48600195E-01  2.62104050E+00
  4.74270293E-02 -4.48600195E-01  2.62104050E+00  4.74270293E-02 -4.48600195E-01
  2.62104050E+00  4.74270293E-02 -4.48600195E-01  2.62104050E+00  4.74270293E-02
 -4.48600195E-01
Num ILSW                                   I              100
ILSW                                       I   N=         100
           0           0           0           0           2           0
           0           0           0           0        4639          -1
           5           0           0           0           2           0
           0           0           1           0           1           0
           1           0           0           0           0           0
           0           0      100000           0          -1           0
           0           0           0           0           0           0
           0           0           0           1           0           0
           0 -2000000000           1           0           0           0
           0           0         121          52           0           0
           0           0          58           0           0           0
           0           0           0           0           0           1
           0           0           0           0           0           0
           0           0           0           0           0           0
           0           0           0           0           0           0
           0           0           0           0           0           0
           0           0           0           0
Num RLSW                                   I               52
RLSW                                       R   N=          52
  1.00000000E+00  1.00000000E+00  1.00000000E+00  1.00000000E+00  1.00000000E+00
  0.00000000E+00  2.00000000E-01  2.22036000E-01  0.00000000E+00  7.77964000E-01
  0.00000000E+00  2.00000000E-01  0.00000000E+00  0.00000000E+00  1.00000000E+00
  0.00000000E+00  0.00000000E+00  1.00000000E+00  0.00000000E+00  0.00000000E+00
  0.00000000E+00  0.00000000E+00  1.00000000E+00  0.00000000E+00  0.00000000E+00
  0.00000000E+00  0.00000000E+00  1.00000000E+00  0.00000000E+00  0.00000000E+00
  0.00000000E+00  0.00000000E+00  1.00000000E+00  0.00000000E+00  0.00000000E+00
  0.00000000E+00  0.00000000E+00  0.00000000E+00  1.00000000E+00  1.00000000E+00
  0.00000000E+00  1.00000000E+00  0.00000000E+00  0.00000000E+00  0.00000000E+00
  0.00000000E+00  0.00000000E+00  0.00000000E+00  0.00000000E+00  0.00000000E+00
  0.00000000E+00  0.00000000E+00
MxBond                                     I                2
NBond                                      I   N=           6
           2           1           1           2           1           1
IBond                                      I   N=          12
           2           3           1           0           1           0
           5           6           4           0           4           0
RBond                                      R   N=          12
  1.00000000E+00  1.00000000E+00  1.00000000E+00  0.00000000E+00  1.00000000E+00
  0.00000000E+00  1.00000000E+00  1.00000000E+00  1.00000000E+00  0.00000000E+00
  1.00000000E+00  0.00000000E+00
Virial Ratio                               R      2.002889394559857E+00
SCF Energy                                 R     -1.528674585945732E+02
Total Energy                               R     -1.528674585945732E+02
RMS Force                                  R      3.888917036884235E-04
RMS Density                                R      2.169865986009654E-09
NImag                                      I                1
Job Status                                 I                1
Nuclear derivative order                   I                2
Thermal Energy                             R     -1.528163659592811E+02
Thermal Enthalpy                           R     -1.528154217744674E+02
Thermal Free Energy                        R     -1.528514641874592E+02
External E-field                           R   N=          35
  0.00000000E+00  0.00000000E+00  0.00000000E+00  0.00000000E+00  0.00000000E+00
  0.00000000E+00  0.00000000E+00  0.00000000E+00  0.00000000E+00  0.00000000E+00
  0.00000000E+00  0.00000000E+00  0.00000000E+00  0.00000000E+00  0.00000000E+00
  0.00000000E+00  0.00000000E+00  0.00000000E+00  0.00000000E+00  0.00000000E+00
  0.00000000E+00  0.00000000E+00  0.00000000E+00  0.00000000E+00  0.00000000E+00
  0.00000000E+00  0.00000000E+00  0.00000000E+00  0.00000000E+00  0.00000000E+00
  0.00000000E+00  0.00000000E+00  0.00000000E+00  0.00000000E+00  0.00000000E+00
IOpCl                                      I                0
IROHF                                      I                0
Alpha Orbital Energies                     R   N=          72
 -1.92636285E+01 -1.92411610E+01 -1.13199459E+00 -1.10947766E+00 -6.39539071E-01
 -6.15927287E-01 -4.92796250E-01 -4.70014557E-01 -4.17468926E-01 -3.95144914E-01
  3.17198294E-02  5.89696524E-02  7.03468293E-02  9.74695119E-02  2.00576160E-01
  2.08535496E-01  2.13267701E-01  2.20634278E-01  2.37165239E-01  2.46900517E-01
  2.55190132E-01  2.82981613E-01  2.89762103E-01  3.02939476E-01  3.16945106E-01
  3.85495438E-01  5.75720992E-01  6.07902655E-01  6.22793547E-01  6.52397771E-01
  1.04128654E+00  1.06800025E+00  1.07485838E+00  1.09678029E+00  1.09805172E+00
  1.11051248E+00  1.30656687E+00  1.32722217E+00  1.33544814E+00  1.35192492E+00
  1.45566863E+00  1.47941672E+00  1.54555393E+00  1.55956769E+00  1.73990646E+00
  1.76885996E+00  2.07289760E+00  2.09835675E+00  2.21239474E+00  2.23512452E+00
  2.48391150E+00  2.51222233E+00  2.65071498E+00  2.69086225E+00  3.17117435E+00
  3.19599492E+00  3.22248914E+00  3.24297830E+00  3.39106681E+00  3.41327130E+00
  3.76252260E+00  3.78001473E+00  3.97583115E+00  4.00683919E+00  5.03884373E+00
  5.05308952E+00  5.42107616E+00  5.45628102E+00  5.73012977E+00  5.74851727E+00
  4.99942224E+01  5.00175129E+01
Alpha MO coefficients                      R   N=        5184
  5.51672370E-01  4.69629652E-01 -1.27305979E-03  4.28778011E-05 -5.20657821E-04
  1.22513637E-02 -2.01335209E-04  8.68027413E-06 -1.04504860E-04 -4.77579268E-03
 -4.43934724E-04  8.44989669E-06 -1.12550919E-04  4.59295989E-03 -2.62520459E-04
  2.31429537E-05 -2.42760241E-04 -2.74988222E-04  1.47070673E-04  5.34106472E-05
 -1.77456017E-04 -1.16987374E-05 -5.89884754E-05 -4.61875724E-04 -9.16081706E-04
 -4.55318061E-04 -5.34596884E-04 -7.23768049E-04 -2.73757001E-04 -5.92338096E-05
 -4.59922431E-04 -9.24281540E-04 -4.52873676E-04 -5.33799450E-04  7.58880751E-04
 -1.53307527E-04  5.76494409E-06  3.62944279E-06 -9.88321099E-06 -5.37605773E-07
  5.31343669E-06  1.71688924E-05  4.24912049E-05  1.91961128E-06 -1.90155773E-05
 -1.52915238E-04 -3.97674851E-06 -1.03802587E-05  1.00950671E-04  1.17842832E-03
 -4.91816535E-04  2.27346765E-05 -2.16534964E-04  6.55288861E-06 -5.08843358E-06
 -5.93533751E-07 -5.46666726E-06  5.45050672E-07  6.36795432E-06 -6.20654860E-05
  7.63475544E-05  1.93420290E-04  2.94229684E-06 -1.49061910E-07  1.44852773E-06
 -3.92527027E-05  2.59110012E-04 -1.26377788E-03 -4.49326100E-04  2.19727259E-05
  1.22483592E-06 -1.17312425E-05 -5.83712180E-06 -6.63425713E-06 -6.49809077E-06
 -1.01978530E-07  1.03838623E-06  1.93175427E-05  2.58872781E-05  2.97359929E-07
 -2.97143678E-06 -1.27990398E-04 -4.89843135E-05 -2.31947757E-06  2.13390481E-05
  4.54057296E-04  1.70817473E-04  8.64320362E-06 -6.99049525E-05  1.91604528E-06
 -2.34203732E-06 -2.91784205E-07  4.06426997E-07  2.29956473E-07 -8.38071806E-06
  6.37308275E-05 -2.29878454E-04  1.49637567E-04 -3.92150012E-06  9.69425224E-06
  5.65082711E-06 -8.54073299E-06  6.50576221E-05 -2.37179475E-04  1.52742725E-04
 -3.91608712E-06 -1.05302751E-05  3.97798612E-06  5.51672352E-01  4.69629594E-01
 -9.95210746E-04 -9.56484997E-05  9.57605950E-04  1.22678807E-02 -1.67479456E-04
 -1.48416306E-05  1.48978045E-04 -4.95784008E-03 -1.64797476E-04 -3.64084683E-05
  3.61200708E-04  5.42428694E-03 -8.15856167E-04 -1.36355309E-05  1.46025787E-04
  1.75669933E-04  1.37830902E-04 -5.83046017E-05  2.63958167E-04 -1.46503123E-05
 -4.69064331E-05 -5.22178220E-04 -8.36308309E-04 -1.86301353E-04  9.40177260E-05
 -9.40061097E-05  9.27414150E-04 -6.58836895E-05 -2.76876937E-04 -1.59752613E-03
 -1.29565926E-03 -8.81870322E-04  1.57121811E-05 -1.43641802E-04 -1.15850620E-01
 -1.86006195E-01 -4.77703569E-02  1.61729895E-03 -1.96266435E-02  5.38477662E-01
 -7.44735052E-02  2.51309768E-03 -3.05017536E-02  3.62553182E-01 -2.39456145E-02
  8.67015800E-04 -1.04684418E-02 -3.84408134E-03 -2.84844100E-03  1.13567569E-05
 -3.96038444E-04 -7.63946520E-03  5.31478973E-03  1.27688042E-03 -2.41790408E-03
 -4.29457210E-04  9.84352139E-02  8.56836398E-02 -5.43332618E-03  6.28376853E-03
  1.17922974E-02  2.24406850E-02  6.67263519E-03  9.84362479E-02  8.56706460E-02
 -5.38059485E-03  6.26931861E-03  1.17691122E-02 -2.32344528E-02  2.96195183E-03
 -2.63301236E-04 -4.20394157E-04 -6.75165091E-05 -6.20464449E-06  6.19140239E-05
  1.14989379E-03 -3.44677341E-04 -1.87191501E-05  1.90299617E-04  1.66935178E-03
 -8.66441373E-05  5.88813488E-05 -5.84240211E-04 -9.14477630E-03  4.20027921E-03
 -1.73253255E-04  1.66766017E-03 -2.44300744E-05  2.09264133E-05 -1.14297554E-06
  5.31535547E-05 -2.27392891E-06  1.75066025E-04  6.85219852E-04 -8.90176077E-04
 -9.66849919E-04 -2.58360853E-05  7.19339436E-06 -7.06001897E-05  5.33257772E-04
 -1.80126074E-03  1.09235273E-02  2.10087941E-03 -1.70191551E-05 -7.82338943E-06
  7.65690934E-05  2.91083745E-04  4.67320298E-04  1.84998649E-04 -3.87966018E-06
  4.75785508E-05 -1.35378615E-03  1.82004545E-04 -7.35558311E-06  8.96488978E-05
 -7.98142316E-04  3.63622253E-04  5.61287475E-06 -2.74042001E-05 -2.17975151E-03
 -8.19452594E-04 -3.05788048E-05  2.60942020E-04  2.24202246E-05 -1.49468552E-05
 -3.49319910E-06  2.49009141E-06  9.44277822E-07 -2.31162311E-04 -4.28817214E-04
  1.34208181E-03 -1.30813313E-03 -2.63138144E-05 -5.73182138E-05 -1.45739277E-05
 -2.30327996E-04 -4.37057923E-04  1.37035747E-03 -1.32866095E-03 -2.70476373E-05
  5.93896759E-05 -5.33868144E-06 -1.15799571E-01 -1.85917995E-01 -3.73622596E-02
 -3.58916983E-03  3.59362252E-02  5.38113091E-01 -5.81805389E-02 -5.59350075E-03
  5.60034875E-02  3.63530052E-01 -2.01366899E-02 -1.82003484E-03  1.82375403E-02
 -7.93233559E-03  9.89896970E-04 -2.29921622E-04  2.24872043E-03  4.77386186E-03
  1.28291044E-03 -1.68155896E-03  8.15340963E-03 -1.51479430E-04  9.88803928E-02
  8.65732102E-02 -5.27375688E-03  4.23601718E-03 -6.35609217E-03  2.56570115E-03
 -2.52679062E-02  9.78959445E-02  8.41015327E-02 -3.15620651E-03  1.20093806E-02
  2.49781089E-02 -7.97438483E-04  7.55661599E-03 -5.32184410E-07 -8.86711797E-07
  1.17189618E-04  2.39837411E-01  1.94814676E-02  2.86671906E-06  1.70307246E-04
  3.47946227E-01  2.82629199E-02  2.95862775E-06  9.97394971E-05  2.07930768E-01
  1.68893405E-02  1.92724644E-05  7.40918569E-06  1.43688670E-02  1.16144932E-03
 -1.31092621E-03 -1.84508238E-03 -9.25499647E-03 -7.78761850E-04 -2.26574610E-02
 -1.53132816E-01 -2.08452326E-01 -3.38504219E-02 -1.48694440E-02 -2.16538593E-02
 -1.37889361E-02 -9.96482025E-03  1.53133324E-01  2.08448083E-01  3.38268794E-02
  1.48743221E-02  2.16388407E-02 -1.52381430E-02  7.60652953E-03  1.54929950E-07
  2.28896195E-07 -1.14146508E-05  7.37012630E-05 -5.00521172E-06 -3.50370575E-08
 -1.71985860E-05  6.22163041E-05 -1.21338379E-05 -6.50817481E-06 -4.73587644E-06
  2.42758511E-04  1.36716953E-05  2.95147971E-05 -1.49127796E-05 -3.28172855E-04
 -3.03993706E-05 -9.76531719E-07 -4.76166623E-07  3.55261906E-06  1.05014961E-06
 -5.85315653E-06 -1.13030454E-05 -1.18080357E-05 -2.06080267E-05  2.89781313E-05
 -7.06358666E-07  5.12490861E-06  2.06882434E-06  1.12134627E-05  2.00885536E-05
 -1.18921575E-05 -3.34521148E-05  2.17157599E-06  2.31704949E-05  1.78387396E-06
  1.55568650E-04  2.58866038E-04 -1.86837900E-03  2.68865954E-05 -8.17043949E-05
 -8.49230177E-04 -2.73271980E-03  4.06942434E-05 -1.44249487E-04 -7.94096686E-04
 -2.12816224E-03  1.27670104E-05  6.90276841E-05  4.57903714E-04 -3.44308583E-04
  3.55939614E-05 -3.53471455E-04 -7.40658048E-05  6.98573492E-05  4.87325972E-06
  5.91934799E-05 -7.72768058E-06  6.55848631E-04  6.60430050E-04 -7.49899027E-05
  6.40250042E-04 -9.82750036E-05  1.34678240E-04  3.43345195E-05  6.80295104E-04
  6.97797152E-04 -9.35945168E-05  6.97220012E-04 -9.50173554E-05 -1.40892371E-04
  1.33586124E-05  5.25898468E-04  8.48606192E-04  1.65469767E-01 -1.78146314E-02
  1.73822106E-01 -2.35387817E-03  2.39921899E-01 -2.58280359E-02  2.52010551E-01
 -5.33140740E-03  1.44727550E-01 -1.54399754E-02  1.50636482E-01 -3.27287772E-03
  1.04033271E-02 -9.88828290E-04  9.60752428E-03  2.11276977E-02 -1.18742409E-03
 -2.47236117E-03 -1.24074605E-02  1.52375267E-04  1.53209169E-01  2.10492600E-01
  3.71808176E-02  1.69687477E-02  7.24319430E-03  2.66895116E-03 -2.64690444E-02
 -1.52460703E-01 -2.06755624E-01 -3.02674192E-02 -1.82076218E-02 -2.72914926E-02
 -5.52732931E-04  5.80599110E-03 -4.28164218E-02 -7.03294374E-02  2.41421660E-01
 -7.98817212E-03  9.68800306E-02  2.15036201E-01  3.48088920E-01 -1.15130943E-02
  1.39632332E-01  3.10768060E-01  2.71434503E-01 -8.94040998E-03  1.08413205E-01
  2.79119016E-02  6.87956477E-02 -2.20281486E-03  2.66545063E-02  6.13229850E-03
 -1.07724230E-02  5.93268728E-05 -1.12851206E-02  8.86026641E-04 -8.71571654E-02
 -1.41169822E-01 -2.14790253E-02 -9.82239551E-04  1.33241956E-02 -2.76677337E-02
  3.15888082E-03 -8.71574658E-02 -1.41171083E-01 -2.14565020E-02 -1.00450851E-03
  1.33504320E-02  2.67826232E-02  7.58173582E-03  2.55433881E-03  4.18443770E-03
 -7.24390324E-03 -1.08980005E-03  1.08486258E-02 -1.26036632E-02 -1.02270083E-02
 -1.56437629E-03  1.55585651E-02 -1.96704909E-02 -7.16018112E-03 -1.18662686E-03
  1.18391404E-02  1.02949483E-03 -3.96986172E-03 -1.28206360E-04  1.25134237E-03
  4.42694721E-04 -6.97450052E-04 -1.01961768E-04  2.38822556E-04  6.99822821E-05
  5.99185391E-03  9.20550686E-03  5.00353173E-03 -2.55886708E-03 -1.51659739E-03
  8.27058651E-05 -8.01272037E-04  2.73178110E-03  9.19384813E-03 -5.42264509E-03
  2.48551343E-03 -6.75926512E-05 -1.72787286E-04  1.70202546E-03 -2.58010814E-03
 -4.22754182E-03  1.26961734E-02 -6.31725929E-04  7.69678305E-03  1.28079491E-02
  1.77144981E-02 -9.06560416E-04  1.10431285E-02  1.92503824E-02  1.67105207E-02
 -8.00604372E-04  9.63520930E-03  5.85185919E-03 -4.12194992E-03 -6.76087876E-05
  1.09706366E-03  2.98328102E-04 -7.22836718E-04  8.49366197E-06 -6.12101084E-04
  6.02307188E-05 -4.80778267E-03 -7.40573518E-03 -4.72611463E-03 -1.98459153E-03
  7.17679747E-04 -1.46579079E-03  4.48913531E-04 -4.81166919E-03 -7.37324115E-03
 -4.82670802E-03 -1.91520107E-03  7.21397371E-04  1.37224431E-03  6.80360156E-04
 -4.30930788E-02 -7.07714805E-02  1.89557972E-01  1.77206155E-02 -1.77495282E-01
  2.16084227E-01  2.72969519E-01  2.55224288E-02 -2.55645714E-01  3.15728735E-01
  2.12386222E-01  1.98757469E-02 -1.99059529E-01  1.63492957E-02  5.85559881E-02
  4.35502165E-03 -4.38065366E-02 -4.27365540E-03  1.36431348E-02  1.64877817E-03
 -8.89586170E-03 -1.35780314E-03 -8.70950002E-02 -1.42253517E-01 -2.75319999E-02
 -6.27763513E-03  2.95281938E-02 -1.03965392E-03  9.89443341E-03 -8.78483817E-02
 -1.43849481E-01 -8.20360671E-03  1.00145410E-02 -9.28231106E-03  2.99107812E-03
 -2.94291002E-02 -3.28716421E-04 -5.33830282E-04 -1.10690391E-01 -2.21508745E-02
  2.73370075E-01  1.56803607E-03 -1.62961153E-01 -3.25433128E-02  4.01622989E-01
  3.03859936E-03 -1.48983351E-01 -3.00621772E-02  3.71084681E-01 -5.55876154E-03
 -4.26792496E-02 -7.92978258E-03  9.71078643E-02 -1.03105968E-02 -1.20986504E-02
  9.80382325E-04  5.93663292E-03  9.76495644E-04 -3.47506657E-04 -4.14536017E-04
  1.83234841E-03 -1.40892709E-03 -1.29559484E-02 -2.63157344E-03  3.19165291E-02
 -3.43718632E-04 -4.30663513E-04  1.97779928E-03 -1.45925553E-03 -1.29558854E-02
 -2.54111523E-03  3.19228035E-02  2.37855457E-04  4.08389082E-04 -3.16258798E-03
 -2.32668264E-05  9.39817841E-04 -1.73574780E-03 -4.90614207E-03 -5.69576967E-05
  1.59903821E-03  2.93879701E-03 -5.72254267E-03  3.43103042E-05  6.54279295E-04
 -2.61512549E-02  9.87453820E-03 -2.00681124E-04  2.09153486E-03 -7.74828289E-05
 -1.07549621E-04 -1.64404634E-05  3.23756331E-04  7.00691201E-06  1.90425043E-04
 -2.06944121E-04  3.35058280E-03 -4.15571607E-03 -2.49829468E-04 -1.35844086E-05
  2.15878093E-04  2.02395067E-03 -4.78191857E-03  2.49267374E-02  8.06014560E-03
  5.88056685E-05 -1.67580625E-05  2.72116138E-04 -4.92887095E-07 -7.61777465E-07
  3.06482055E-05 -2.19134434E-04 -9.06336646E-05  4.41574825E-07  4.21304896E-05
 -2.72916502E-04 -1.24396243E-04  2.36996345E-05  3.92475736E-05 -1.76236069E-03
 -2.62905665E-04 -1.52696632E-04  5.20058420E-05  7.30318586E-03  6.23426038E-04
  9.21264205E-06  1.54034325E-05  4.96813804E-05  2.11517345E-06  1.40664575E-04
  3.52077282E-04 -1.88030621E-03  1.07606168E-02 -5.29430525E-03 -1.02279088E-04
 -4.95979253E-05 -4.65037771E-05 -3.49649167E-04  1.84440403E-03 -1.05623155E-02
  5.27349149E-03  1.07166915E-04 -5.16521781E-05  2.17583208E-05 -1.20070810E-07
 -1.85582185E-07  3.86937484E-04  2.94114030E-01  2.97759347E-02  1.00898210E-06
  5.68112010E-04  4.32009761E-01  4.37366651E-02 -4.42549201E-06  5.30505301E-04
  3.99504960E-01  4.04402204E-02  2.03991878E-05  1.26128328E-04  1.04871062E-01
  1.06240954E-02  2.06312561E-03 -1.23199987E-03  1.16469448E-02  1.15855383E-03
 -1.23235310E-02  7.61143730E-07  1.12364884E-05 -2.90019550E-05  2.38642226E-05
  4.52677840E-05  3.46941904E-02  3.51120086E-03 -7.73838775E-07  7.30445938E-06
 -1.72093759E-05 -1.06174854E-05  4.55346204E-05  3.40828397E-02  3.45084609E-03
 -2.42199206E-02 -4.08808909E-02 -4.22407773E-02  1.53789304E-03 -1.89906717E-02
  1.51478067E-01 -6.23020591E-02  2.22299091E-03 -2.75608213E-02  1.11862961E-01
 -8.62478351E-02  3.31975094E-03 -3.99601995E-02  7.90615496E-01 -7.30790053E-02
  1.59219660E-03 -2.37757263E-02  5.38995771E-04  1.17055923E-03 -3.17173503E-04
  2.93356658E-03 -9.84715505E-05 -8.78541391E-03 -9.03680056E-02 -1.33363079E-01
 -6.74277462E-01  1.10444067E-02  1.77147396E-02  5.86766251E-03 -8.79621689E-03
 -9.04090807E-02 -1.32975144E-01 -6.72369167E-01  1.10136314E-02 -1.84247661E-02
  2.92650722E-03 -8.55014761E-03 -1.43440058E-02 -1.94070112E-02 -1.20064395E-03
  1.18752455E-02  5.13765027E-02 -2.87585696E-02 -1.92920005E-03  1.90661399E-02
  5.32646386E-02 -4.04815306E-02 -1.40190759E-03  1.40378075E-02  1.47813601E-01
  3.53760071E-02 -5.60601711E-03  5.47987941E-02 -2.89695875E-04 -1.34893655E-03
  2.18984926E-06  4.92285241E-04  1.34907720E-04 -2.29392740E-03 -2.53953652E-02
 -5.22740584E-02 -3.25312334E-01 -1.66840507E-03  7.69586830E-04 -7.57993595E-03
 -1.71822597E-03 -4.10620581E-02  4.02861220E-02 -1.42952073E-02  8.18673431E-03
 -2.39867073E-04  2.28364381E-03 -5.77312373E-03 -9.84349022E-03 -3.33090319E-02
  1.02583181E-03 -1.01164806E-02  3.92313390E-02 -4.80018131E-02  1.50949043E-03
 -1.42289549E-02  9.66089914E-03 -6.03494096E-02  1.63239501E-03 -2.02620390E-02
  3.98399962E-01 -4.74505169E-02  2.95584977E-03 -1.51274534E-02 -3.59995791E-04
  1.05791346E-03 -1.74349993E-04  2.74831386E-03 -9.01366211E-05 -1.06119447E-03
 -2.93701905E-02 -8.49458045E-02 -3.07880859E-01  3.68744927E-03  8.72089424E-03
  2.68886658E-03 -9.75753160E-04 -2.94594208E-02 -8.53662174E-02 -3.23129373E-01
  3.75834314E-03 -9.14338843E-03  1.27309777E-03  2.20981239E-02  3.73951211E-02