 Entering Gaussian System, Link 0=g16
 Input=dimer-scan-14-s12.com
 Output=dimer-scan-14-s12.log
 Initial command:
 /hpc/applications/gaussian/g16c/g16/l1.exe "/scratch/users/yunwent/wat-dimer/14-frq/Gau-22122.inp" -scrdir="/scratch/users/yunwent/wat-dimer/14-frq/"
 Entering Link 1 = /hpc/applications/gaussian/g16c/g16/l1.exe PID=     22123.
  
 Copyright (c) 1988-2019, Gaussian, Inc.  All Rights Reserved.
  
 This is part of the Gaussian(R) 16 program.  It is based on
 the Gaussian(R) 09 system (copyright 2009, Gaussian, Inc.),
 the Gaussian(R) 03 system (copyright 2003, Gaussian, Inc.),
 the Gaussian(R) 98 system (copyright 1998, Gaussian, Inc.),
 the Gaussian(R) 94 system (copyright 1995, Gaussian, Inc.),
 the Gaussian 92(TM) system (copyright 1992, Gaussian, Inc.),
 the Gaussian 90(TM) system (copyright 1990, Gaussian, Inc.),
 the Gaussian 88(TM) system (copyright 1988, Gaussian, Inc.),
 the Gaussian 86(TM) system (copyright 1986, Carnegie Mellon
 University), and the Gaussian 82(TM) system (copyright 1983,
 Carnegie Mellon University). Gaussian is a federally registered
 trademark of Gaussian, Inc.
  
 This software contains proprietary and confidential information,
 including trade secrets, belonging to Gaussian, Inc.
  
 This software is provided under written license and may be
 used, copied, transmitted, or stored only in accord with that
 written license.
  
 The following legend is applicable only to US Government
 contracts under FAR:
  
                    RESTRICTED RIGHTS LEGEND
  
 Use, reproduction and disclosure by the US Government is
 subject to restrictions as set forth in subparagraphs (a)
 and (c) of the Commercial Computer Software - Restricted
 Rights clause in FAR 52.227-19.
  
 Gaussian, Inc.
 340 Quinnipiac St., Bldg. 40, Wallingford CT 06492
  
  
 ---------------------------------------------------------------
 Warning -- This program may not be used in any manner that
 competes with the business of Gaussian, Inc. or will provide
 assistance to any competitor of Gaussian, Inc.  The licensee
 of this program is prohibited from giving any competitor of
 Gaussian, Inc. access to this program.  By using this program,
 the user acknowledges that Gaussian, Inc. is engaged in the
 business of creating and licensing software in the field of
 computational chemistry and represents and warrants to the
 licensee that it is not a competitor of Gaussian, Inc. and that
 it will not use this program in any manner prohibited above.
 ---------------------------------------------------------------
  

 Cite this work as:
 Gaussian 16, Revision C.01,
 M. J. Frisch, G. W. Trucks, H. B. Schlegel, G. E. Scuseria, 
 M. A. Robb, J. R. Cheeseman, G. Scalmani, V. Barone, 
 G. A. Petersson, H. Nakatsuji, X. Li, M. Caricato, A. V. Marenich, 
 J. Bloino, B. G. Janesko, R. Gomperts, B. Mennucci, H. P. Hratchian, 
 J. V. Ortiz, A. F. Izmaylov, J. L. Sonnenberg, D. Williams-Young, 
 F. Ding, F. Lipparini, F. Egidi, J. Goings, B. Peng, A. Petrone, 
 T. Henderson, D. Ranasinghe, V. G. Zakrzewski, J. Gao, N. Rega, 
 G. Zheng, W. Liang, M. Hada, M. Ehara, K. Toyota, R. Fukuda, 
 J. Hasegawa, M. Ishida, T. Nakajima, Y. Honda, O. Kitao, H. Nakai, 
 T. Vreven, K. Throssell, J. A. Montgomery, Jr., J. E. Peralta, 
 F. Ogliaro, M. J. Bearpark, J. J. Heyd, E. N. Brothers, K. N. Kudin, 
 V. N. Staroverov, T. A. Keith, R. Kobayashi, J. Normand, 
 K. Raghavachari, A. P. Rendell, J. C. Burant, S. S. Iyengar, 
 J. Tomasi, M. Cossi, J. M. Millam, M. Klene, C. Adamo, R. Cammi, 
 J. W. Ochterski, R. L. Martin, K. Morokuma, O. Farkas, 
 J. B. Foresman, and D. J. Fox, Gaussian, Inc., Wallingford CT, 2019.
 
 ******************************************
 Gaussian 16:  ES64L-G16RevC.01  3-Jul-2019
                16-May-2021 
 ******************************************
 %chk=dimer-scan-14-s12.chk
 %nprocshared=36
 Will use up to   36 processors via shared memory.
 %mem=80GB
 ------------------------------------------
 # freq rwb97xd/6-311++g(d,p) int=ultrafine
 ------------------------------------------
 1/10=4,30=1,38=1/1,3;
 2/12=2,17=6,18=5,40=1/2;
 3/5=4,6=6,7=1111,11=2,25=1,30=1,71=2,74=-58,75=-5,116=1,140=1/1,2,3;
 4//1;
 5/5=2,38=5,98=1/2;
 8/6=4,10=90,11=11/1;
 11/6=1,8=1,9=11,15=111,16=1/1,2,10;
 10/6=1/2;
 6/7=2,8=2,9=2,10=2,28=1/1;
 7/8=1,10=1,25=1/1,2,3,16;
 1/10=4,30=1/3;
 99//99;
 --------------------
 Energy: -26.09245376
 --------------------
 Symbolic Z-matrix:
 Charge =  0 Multiplicity = 1
 O                     3.52349   0.00217  -0.0028 
 H                     4.10712  -0.56661  -0.50573 
 H                     4.10298   0.55341   0.5239 
 O                    -3.75623  -0.0044    0.00434 
 H                    -3.21055   0.54152  -0.5626 
 H                    -3.13765  -0.51046   0.5321 
 

 GradGradGradGradGradGradGradGradGradGradGradGradGradGradGradGradGradGrad
 Berny optimization.
 Initialization pass.
 Trust Radius=3.00D-01 FncErr=1.00D-07 GrdErr=1.00D-07 EigMax=2.50D+02 EigMin=1.00D-04
 Number of steps in this run=      2 maximum allowed number of steps=      2.
 GradGradGradGradGradGradGradGradGradGradGradGradGradGradGradGradGradGrad

                          Input orientation:                          
 ---------------------------------------------------------------------
 Center     Atomic      Atomic             Coordinates (Angstroms)
 Number     Number       Type             X           Y           Z
 ---------------------------------------------------------------------
      1          8           0        3.523490    0.002170   -0.002797
      2          1           0        4.107124   -0.566609   -0.505725
      3          1           0        4.102984    0.553407    0.523896
      4          8           0       -3.756228   -0.004402    0.004337
      5          1           0       -3.210552    0.541521   -0.562595
      6          1           0       -3.137653   -0.510463    0.532101
 ---------------------------------------------------------------------
                    Distance matrix (angstroms):
                    1          2          3          4          5
     1  O    0.000000
     2  H    0.957640   0.000000
     3  H    0.957643   1.521372   0.000000
     4  O    7.279724   7.899908   7.896094   0.000000
     5  H    6.778761   7.401322   7.393809   0.957709   0.000000
     6  H    6.702219   7.318950   7.318382   0.957741   1.519982
                    6
     6  H    0.000000
 Stoichiometry    H4O2
 Framework group  C1[X(H4O2)]
 Deg. of freedom    12
 Full point group                 C1      NOp   1
 Largest Abelian subgroup         C1      NOp   1
 Largest concise Abelian subgroup C1      NOp   1
                         Standard orientation:                         
 ---------------------------------------------------------------------
 Center     Atomic      Atomic             Coordinates (Angstroms)
 Number     Number       Type             X           Y           Z
 ---------------------------------------------------------------------
      1          8           0       -3.523490    0.002170    0.002797
      2          1           0       -4.107124   -0.566609    0.505725
      3          1           0       -4.102984    0.553407   -0.523896
      4          8           0        3.756228   -0.004402   -0.004337
      5          1           0        3.210552    0.541521    0.562595
      6          1           0        3.137653   -0.510463   -0.532101
 ---------------------------------------------------------------------
 Rotational constants (GHZ):         216.9280497           1.0538076           1.0536942
 Standard basis: 6-311++G(d,p) (5D, 7F)
 There are    74 symmetry adapted cartesian basis functions of A   symmetry.
 There are    72 symmetry adapted basis functions of A   symmetry.
    72 basis functions,   108 primitive gaussians,    74 cartesian basis functions
    10 alpha electrons       10 beta electrons
       nuclear repulsion energy        25.6460268479 Hartrees.
 NAtoms=    6 NActive=    6 NUniq=    6 SFac= 1.00D+00 NAtFMM=   60 NAOKFM=F Big=F
 Integral buffers will be    131072 words long.
 Raffenetti 2 integral format.
 Two-electron integral symmetry is turned on.
 Nuclear repulsion after empirical dispersion term =       25.6459652472 Hartrees.
 One-electron integrals computed using PRISM.
 NBasis=    72 RedAO= T EigKep=  3.47D-03  NBF=    72
 NBsUse=    72 1.00D-06 EigRej= -1.00D+00 NBFU=    72
 ExpMin= 3.60D-02 ExpMax= 8.59D+03 ExpMxC= 1.30D+03 IAcc=3 IRadAn=         5 AccDes= 0.00D+00
 Harris functional with IExCor= 4639 and IRadAn=       5 diagonalized for initial guess.
 HarFok:  IExCor= 4639 AccDes= 0.00D+00 IRadAn=         5 IDoV= 1 UseB2=F ITyADJ=14
 ICtDFT=  3500011 ScaDFX=  1.000000  1.000000  1.000000  1.000000
 FoFCou: FMM=F IPFlag=           0 FMFlag=      100000 FMFlg1=           0
         NFxFlg=           0 DoJE=T BraDBF=F KetDBF=T FulRan=T
         wScrn=  0.000000 ICntrl=       500 IOpCl=  0 I1Cent=   200000004 NGrid=           0
         NMat0=    1 NMatS0=      1 NMatT0=    0 NMatD0=    1 NMtDS0=    0 NMtDT0=    0
 Petite list used in FoFCou.
 Keep R1 ints in memory in canonical form, NReq=39419492.
 Requested convergence on RMS density matrix=1.00D-08 within 128 cycles.
 Requested convergence on MAX density matrix=1.00D-06.
 Requested convergence on             energy=1.00D-06.
 No special actions if energy rises.
 SCF Done:  E(RwB97XD) =  -152.865269734     A.U. after   10 cycles
            NFock= 10  Conv=0.78D-08     -V/T= 2.0028
 DoSCS=F DFT=T ScalE2(SS,OS)=  1.000000  1.000000
 Range of M.O.s used for correlation:     1    72
 NBasis=    72 NAE=    10 NBE=    10 NFC=     0 NFV=     0
 NROrb=     72 NOA=    10 NOB=    10 NVA=    62 NVB=    62
 Symmetrizing basis deriv contribution to polar:
 IMax=3 JMax=2 DiffMx= 0.00D+00
 G2DrvN: will do     7 centers at a time, making    1 passes.
 Calling FoFCou, ICntrl=  3107 FMM=F I1Cent=   0 AccDes= 0.00D+00.
 End of G2Drv F.D. properties file   721 does not exist.
 End of G2Drv F.D. properties file   722 does not exist.
 End of G2Drv F.D. properties file   788 does not exist.
          IDoAtm=111111
          Differentiating once with respect to electric field.
                with respect to dipole field.
          Differentiating once with respect to nuclear coordinates.
 Keep R1 ints in memory in canonical form, NReq=39298839.
          There are    21 degrees of freedom in the 1st order CPHF.  IDoFFX=6 NUNeed=     3.
     18 vectors produced by pass  0 Test12= 2.95D-15 4.76D-09 XBig12= 3.83D+00 7.31D-01.
 AX will form    18 AO Fock derivatives at one time.
     18 vectors produced by pass  1 Test12= 2.95D-15 4.76D-09 XBig12= 5.12D-01 1.93D-01.
     18 vectors produced by pass  2 Test12= 2.95D-15 4.76D-09 XBig12= 1.39D-02 2.89D-02.
     18 vectors produced by pass  3 Test12= 2.95D-15 4.76D-09 XBig12= 9.38D-05 3.18D-03.
     15 vectors produced by pass  4 Test12= 2.95D-15 4.76D-09 XBig12= 6.11D-07 2.38D-04.
     15 vectors produced by pass  5 Test12= 2.95D-15 4.76D-09 XBig12= 4.56D-09 1.61D-05.
     12 vectors produced by pass  6 Test12= 2.95D-15 4.76D-09 XBig12= 2.22D-11 1.43D-06.
      4 vectors produced by pass  7 Test12= 2.95D-15 4.76D-09 XBig12= 8.83D-14 6.78D-08.
 InvSVY:  IOpt=1 It=  1 EMax= 8.88D-16
 Solved reduced A of dimension   118 with    21 vectors.
 Isotropic polarizability for W=    0.000000       14.23 Bohr**3.
 End of Minotr F.D. properties file   721 does not exist.
 End of Minotr F.D. properties file   722 does not exist.
 End of Minotr F.D. properties file   788 does not exist.

 **********************************************************************

            Population analysis using the SCF Density.

 **********************************************************************

 Orbital symmetries:
       Occupied  (A) (A) (A) (A) (A) (A) (A) (A) (A) (A)
       Virtual   (A) (A) (A) (A) (A) (A) (A) (A) (A) (A) (A) (A)
                 (A) (A) (A) (A) (A) (A) (A) (A) (A) (A) (A) (A)
                 (A) (A) (A) (A) (A) (A) (A) (A) (A) (A) (A) (A)
                 (A) (A) (A) (A) (A) (A) (A) (A) (A) (A) (A) (A)
                 (A) (A) (A) (A) (A) (A) (A) (A) (A) (A) (A) (A)
                 (A) (A)
 The electronic state is 1-A.
 Alpha  occ. eigenvalues --  -19.25745 -19.24850  -1.12619  -1.11724  -0.63361
 Alpha  occ. eigenvalues --   -0.62433  -0.48574  -0.47688  -0.41119  -0.40225
 Alpha virt. eigenvalues --    0.03491   0.04742   0.07199   0.07996   0.20040
 Alpha virt. eigenvalues --    0.21194   0.22816   0.22872   0.23091   0.23711
 Alpha virt. eigenvalues --    0.23800   0.24437   0.29158   0.29808   0.30059
 Alpha virt. eigenvalues --    0.30793   0.57707   0.58578   0.62488   0.63566
 Alpha virt. eigenvalues --    1.03786   1.04500   1.07438   1.08318   1.08422
 Alpha virt. eigenvalues --    1.09356   1.31177   1.32002   1.33244   1.34186
 Alpha virt. eigenvalues --    1.43868   1.44858   1.54330   1.55146   1.74568
 Alpha virt. eigenvalues --    1.75568   2.07587   2.08413   2.21472   2.22474
 Alpha virt. eigenvalues --    2.48586   2.49605   2.65397   2.66360   3.17803
 Alpha virt. eigenvalues --    3.18772   3.22840   3.23678   3.39606   3.40523
 Alpha virt. eigenvalues --    3.76341   3.77060   3.98256   3.99235   5.03462
 Alpha virt. eigenvalues --    5.04342   5.41344   5.42365   5.73541   5.74308
 Alpha virt. eigenvalues --   49.99749  50.00671
          Condensed to atoms (all electrons):
               1          2          3          4          5          6
     1  O    7.866843   0.325715   0.325701   0.000000  -0.000000  -0.000001
     2  H    0.325715   0.441121  -0.025968   0.000000  -0.000000  -0.000000
     3  H    0.325701  -0.025968   0.441144   0.000000  -0.000000  -0.000000
     4  O    0.000000   0.000000   0.000000   7.867596   0.325017   0.325189
     5  H   -0.000000  -0.000000  -0.000000   0.325017   0.441946  -0.025774
     6  H   -0.000001  -0.000000  -0.000000   0.325189  -0.025774   0.441595
 Mulliken charges:
               1
     1  O   -0.518257
     2  H    0.259133
     3  H    0.259123
     4  O   -0.517802
     5  H    0.258812
     6  H    0.258992
 Sum of Mulliken charges =   0.00000
 Mulliken charges with hydrogens summed into heavy atoms:
               1
     1  O   -0.000002
     4  O    0.000002
 APT charges:
               1
     1  O   -0.566915
     2  H    0.283510
     3  H    0.283492
     4  O   -0.566593
     5  H    0.283190
     6  H    0.283316
 Sum of APT charges =  -0.00000
 APT charges with hydrogens summed into heavy atoms:
               1
     1  O    0.000087
     4  O   -0.000087
 Electronic spatial extent (au):  <R**2>=            985.8287
 Charge=              0.0000 electrons
 Dipole moment (field-independent basis, Debye):
    X=             -4.3799    Y=              0.0416    Z=              0.0287  Tot=              4.3802
 Quadrupole moment (field-independent basis, Debye-Ang):
   XX=            -12.8831   YY=            -11.9751   ZZ=            -12.1238
   XY=              0.4852   XZ=              0.5220   YZ=             -0.0006
 Traceless Quadrupole moment (field-independent basis, Debye-Ang):
   XX=             -0.5557   YY=              0.3522   ZZ=              0.2035
   XY=              0.4852   XZ=              0.5220   YZ=             -0.0006
 Octapole moment (field-independent basis, Debye-Ang**2):
  XXX=           -177.0613  YYY=              0.0491  ZZZ=              0.0402  XYY=             -2.6430
  XXY=              0.8200  XXZ=              0.7334  XZZ=             -1.0927  YZZ=              0.0658
  YYZ=              0.0535  XYZ=             12.1747
 Hexadecapole moment (field-independent basis, Debye-Ang**3):
 XXXX=          -1039.1840 YYYY=            -14.4264 ZZZZ=            -14.4732 XXXY=              8.7433
 XXXZ=              9.1303 YYYX=              0.5560 YYYZ=             -0.0554 ZZZX=              0.6028
 ZZZY=              0.0548 XXYY=           -162.7677 XXZZ=           -165.5985 YYZZ=             -4.2253
 XXYZ=             -6.7351 YYXZ=              0.2534 ZZXY=              0.2150
 N-N= 2.564596524724D+01 E-N=-4.130854524703D+02  KE= 1.524346284617D+02
  Exact polarizability:      13.327       0.050      14.719       0.046      -0.012      14.654
 Approx polarizability:      12.142       0.073      13.143       0.071      -0.006      13.031
 Calling FoFJK, ICntrl=    100127 FMM=F ISym2X=0 I1Cent= 0 IOpClX= 0 NMat=1 NMatS=1 NMatT=0.
 Full mass-weighted force constant matrix:
 Low frequencies ---  -10.3234   -0.0010   -0.0009    0.0007    4.2575    5.5149
 Low frequencies ---   19.2966   30.3192   42.2186
 ******    1 imaginary frequencies (negative Signs) ****** 
 Diagonal vibrational polarizability:
       17.8859764    2308.8063662    2870.5433241
 Harmonic frequencies (cm**-1), IR intensities (KM/Mole), Raman scattering
 activities (A**4/AMU), depolarization ratios for plane and unpolarized
 incident light, reduced masses (AMU), force constants (mDyne/A),
 and normal coordinates:
                      1                      2                      3
                      A                      A                      A
 Frequencies --    -10.3233                24.6748                36.6941
 Red. masses --      6.0007                 1.0363                 1.0314
 Frc consts  --      0.0004                 0.0004                 0.0008
 IR Inten    --      0.0115                19.3039                65.2122
  Atom  AN      X      Y      Z        X      Y      Z        X      Y      Z
     1   8    -0.41   0.00   0.00    -0.00   0.00   0.02    -0.00   0.00  -0.03
     2   1    -0.41   0.00   0.00    -0.11  -0.16  -0.29     0.23   0.24   0.51
     3   1    -0.41   0.00   0.00     0.11  -0.01  -0.12    -0.24  -0.29  -0.07
     4   8     0.41   0.00   0.00    -0.00  -0.02  -0.03    -0.00  -0.02   0.00
     5   1     0.39  -0.01  -0.01     0.54   0.29   0.19     0.22  -0.13   0.32
     6   1     0.42  -0.01  -0.01    -0.51   0.15   0.39    -0.21   0.47  -0.23
                      4                      5                      6
                      A                      A                      A
 Frequencies --     48.4015                70.2855               115.7026
 Red. masses --      1.0536                 1.1348                 1.0994
 Frc consts  --      0.0015                 0.0033                 0.0087
 IR Inten    --     23.9824               352.0288               419.2707
  Atom  AN      X      Y      Z        X      Y      Z        X      Y      Z
     1   8     0.00   0.03  -0.04     0.00  -0.07  -0.06     0.00  -0.02   0.02
     2   1     0.46  -0.36   0.06    -0.17   0.45   0.33    -0.19   0.09  -0.08
     3   1    -0.47   0.02   0.47     0.14   0.58   0.48     0.19   0.11  -0.05
     4   8    -0.00  -0.02   0.02    -0.00   0.01  -0.01    -0.00  -0.05   0.05
     5   1     0.05   0.33  -0.27     0.12   0.07   0.04     0.01   0.49  -0.46
     6   1    -0.05  -0.05   0.11    -0.11  -0.07   0.19    -0.01   0.49  -0.46
                      7                      8                      9
                      A                      A                      A
 Frequencies --   1611.7341              1613.3287              3898.4871
 Red. masses --      1.0827                 1.0827                 1.0452
 Frc consts  --      1.6571                 1.6604                 9.3594
 IR Inten    --     85.0603                54.3475                18.0230
  Atom  AN      X      Y      Z        X      Y      Z        X      Y      Z
     1   8    -0.07  -0.00  -0.00     0.01   0.00   0.00     0.01   0.00   0.00
     2   1     0.56  -0.30   0.30    -0.06   0.04  -0.03    -0.08  -0.08   0.07
     3   1     0.56   0.32  -0.28    -0.06  -0.04   0.03    -0.08   0.08  -0.08
     4   8    -0.01   0.00   0.00    -0.07   0.00   0.00     0.05  -0.00  -0.00
     5   1     0.07   0.03   0.03     0.58   0.28   0.29    -0.36   0.41   0.42
     6   1     0.06  -0.04  -0.04     0.54  -0.31  -0.32    -0.42  -0.39  -0.40
                     10                     11                     12
                      A                      A                      A
 Frequencies --   3898.6705              4006.0948              4007.3229
 Red. masses --      1.0452                 1.0824                 1.0825
 Frc consts  --      9.3597                10.2349                10.2423
 IR Inten    --      8.1953                62.5921                63.5125
  Atom  AN      X      Y      Z        X      Y      Z        X      Y      Z
     1   8    -0.05  -0.00  -0.00     0.00   0.00  -0.00    -0.00  -0.05   0.05
     2   1     0.39   0.43  -0.38    -0.00  -0.00   0.00     0.43   0.42  -0.37
     3   1     0.39  -0.42   0.40     0.00  -0.00   0.00    -0.43   0.41  -0.39
     4   8     0.01  -0.00  -0.00    -0.00  -0.05  -0.05    -0.00  -0.00  -0.00
     5   1    -0.07   0.08   0.08    -0.40   0.40   0.42    -0.00   0.00   0.00
     6   1    -0.08  -0.07  -0.08     0.45   0.37   0.39     0.00   0.00   0.00

 -------------------
 - Thermochemistry -
 -------------------
 Temperature   298.150 Kelvin.  Pressure   1.00000 Atm.
 Atom     1 has atomic number  8 and mass  15.99491
 Atom     2 has atomic number  1 and mass   1.00783
 Atom     3 has atomic number  1 and mass   1.00783
 Atom     4 has atomic number  8 and mass  15.99491
 Atom     5 has atomic number  1 and mass   1.00783
 Atom     6 has atomic number  1 and mass   1.00783
 Molecular mass:    36.02113 amu.
 Principal axes and moments of inertia in atomic units:
                           1         2         3
     Eigenvalues --     8.319541712.590811712.77516
           X            1.00000   0.00040   0.00043
           Y           -0.00040   1.00000  -0.00215
           Z           -0.00043   0.00215   1.00000
 This molecule is an asymmetric top.
 Rotational symmetry number  1.
 Rotational temperatures (Kelvin)     10.41090     0.05057     0.05057
 Rotational constants (GHZ):         216.92805     1.05381     1.05369
    1 imaginary frequencies ignored.
 Zero-point vibrational energy     115627.4 (Joules/Mol)
                                   27.63562 (Kcal/Mol)
 Warning -- explicit consideration of   5 degrees of freedom as
           vibrations may cause significant error
 Vibrational temperatures:     35.50    52.79    69.64   101.13   166.47
          (Kelvin)           2318.93  2321.22  5609.05  5609.32  5763.88
                             5765.64
 
 Zero-point correction=                           0.044040 (Hartree/Particle)
 Thermal correction to Energy=                    0.050967
 Thermal correction to Enthalpy=                  0.051911
 Thermal correction to Gibbs Free Energy=         0.011412
 Sum of electronic and zero-point Energies=           -152.821230
 Sum of electronic and thermal Energies=              -152.814302
 Sum of electronic and thermal Enthalpies=            -152.813358
 Sum of electronic and thermal Free Energies=         -152.853858
 
                     E (Thermal)             CV                S
                      KCal/Mol        Cal/Mol-Kelvin    Cal/Mol-Kelvin
 Total                   31.982             15.912             85.238
 Electronic               0.000              0.000              0.000
 Translational            0.889              2.981             36.674
 Rotational               0.889              2.981             24.704
 Vibrational             30.205              9.950             23.860
 Vibration     1          0.593              1.985              6.217
 Vibration     2          0.594              1.982              5.430
 Vibration     3          0.595              1.978              4.882
 Vibration     4          0.598              1.968              4.145
 Vibration     5          0.608              1.936              3.171
                       Q            Log10(Q)             Ln(Q)
 Total Bot       0.563465D-05         -5.249133        -12.086576
 Total V=0       0.101840D+16         15.007917         34.557006
 Vib (Bot)       0.118578D-16        -16.925995        -38.973544
 Vib (Bot)    1  0.839327D+01          0.923931          2.127430
 Vib (Bot)    2  0.563998D+01          0.751277          1.729880
 Vib (Bot)    3  0.427165D+01          0.630596          1.452001
 Vib (Bot)    4  0.293424D+01          0.467496          1.076450
 Vib (Bot)    5  0.176796D+01          0.247472          0.569824
 Vib (V=0)       0.214316D+04          3.331055          7.670038
 Vib (V=0)    1  0.890815D+01          0.949787          2.186966
 Vib (V=0)    2  0.616210D+01          0.789729          1.818417
 Vib (V=0)    3  0.480082D+01          0.681315          1.568786
 Vib (V=0)    4  0.347654D+01          0.541147          1.246037
 Vib (V=0)    5  0.233730D+01          0.368714          0.848996
 Electronic      0.100000D+01          0.000000          0.000000
 Translational   0.849747D+07          6.929290         15.955280
 Rotational      0.559206D+05          4.747572         10.931689
 ***** Axes restored to original set *****
 -------------------------------------------------------------------
 Center     Atomic                   Forces (Hartrees/Bohr)
 Number     Number              X              Y              Z
 -------------------------------------------------------------------
      1        8          -0.000127179   -0.000001309    0.000002654
      2        1           0.000002329    0.000004459   -0.000001410
      3        1           0.000001560   -0.000003012   -0.000000832
      4        8           0.000154349   -0.000008762    0.000009348
      5        1          -0.000008539    0.000007802   -0.000006409
      6        1          -0.000022520    0.000000821   -0.000003350
 -------------------------------------------------------------------
 Cartesian Forces:  Max     0.000154349 RMS     0.000047670

 GradGradGradGradGradGradGradGradGradGradGradGradGradGradGradGradGradGrad
 Berny optimization.
 Search for a local minimum.
 Step number   1 out of a maximum of    2
 All quantities printed in internal units (Hartrees-Bohrs-Radians)
 Second derivative matrix not updated -- analytic derivatives used.
 The second derivative matrix:
                          X1        Y1        Z1        X2        Y2
           X1           0.46635
           Y1          -0.00841   0.38842
           Z1           0.00822   0.35642   0.32825
           X2          -0.23449   0.20565   0.18107   0.22258
           Y2           0.16217  -0.19958  -0.17778  -0.18380   0.21527
           Z2           0.14109  -0.17629  -0.15732  -0.16138   0.19152
           X3          -0.23191  -0.19724  -0.18929   0.01191   0.02162
           Y3          -0.15376  -0.18880  -0.17864  -0.02186  -0.01570
           Z3          -0.14932  -0.18013  -0.17089  -0.01970  -0.01375
           X4          -0.00011  -0.00000   0.00000   0.00002  -0.00001
           Y4           0.00000   0.00017   0.00003  -0.00005  -0.00006
           Z4          -0.00000   0.00003   0.00016  -0.00004  -0.00001
           X5           0.00008  -0.00002   0.00002  -0.00001   0.00001
           Y5          -0.00003  -0.00010  -0.00002   0.00003   0.00003
           Z5           0.00003  -0.00002  -0.00010   0.00002   0.00000
           X6           0.00008   0.00002  -0.00002  -0.00001   0.00000
           Y6           0.00002  -0.00011  -0.00002   0.00003   0.00004
           Z6          -0.00003  -0.00002  -0.00011   0.00003   0.00000
                          Z2        X3        Y3        Z3        X4
           Z2           0.17057
           X3           0.02029   0.22000
           Y3          -0.01524   0.17563   0.20449
           Z3          -0.01326   0.16902   0.19387   0.18414
           X4          -0.00001   0.00002   0.00001   0.00001   0.46806
           Y4          -0.00001   0.00005  -0.00006  -0.00001  -0.00768
           Z4          -0.00006   0.00005  -0.00001  -0.00006   0.00890
           X5           0.00000  -0.00001  -0.00000  -0.00001  -0.21070
           Y5           0.00001  -0.00002   0.00004   0.00000  -0.14405
           Z5           0.00004  -0.00003   0.00001   0.00003   0.14950
           X6           0.00001  -0.00001  -0.00001  -0.00000  -0.25730
           Y6           0.00000  -0.00003   0.00003   0.00000   0.15173
           Z6           0.00003  -0.00003   0.00000   0.00004  -0.15839
                          Y4        Z4        X5        Y5        Z5
           Y4           0.34311
           Z4          -0.35631   0.37148
           X5          -0.18505   0.19215   0.19883
           Y5          -0.18321   0.18995   0.16318   0.19716
           Z5           0.18987  -0.19768  -0.16942  -0.20456   0.21279
           X6           0.19273  -0.20105   0.01182  -0.01911   0.01991
           Y6          -0.15995   0.16635   0.02188  -0.01391   0.01470
           Z6           0.16643  -0.17385  -0.02274   0.01462  -0.01508
                          X6        Y6        Z6
           X6           0.24544
           Y6          -0.17362   0.17389
           Z6           0.18115  -0.18104   0.18897
 ITU=  0
     Eigenvalues ---   -0.00002   0.00003   0.00006   0.00012   0.00041
     Eigenvalues ---    0.00093   0.14618   0.16024   0.81408   0.95572
     Eigenvalues ---    1.03671   1.05240
 Eigenvalue     1 is  -2.42D-05 should be greater than     0.000000 Eigenvector:
                          X6        X2        X4        X1        X3
   1                    0.42211  -0.40900   0.40825  -0.40822  -0.40723
                          X5        Y6        Z5        Z6        Z4
   1                    0.39405   0.00603  -0.00520  -0.00475   0.00299
 Quadratic step=4.158D+00 exceeds max=3.000D-01 adjusted using Lamda=-3.114D-04.
 Angle between NR and scaled steps=   1.16 degrees.
 Angle between quadratic step and forces=  60.03 degrees.
 Linear search not attempted -- first point.
 B after Tr=    -0.000037   -0.000649    0.000822
         Rot=    1.000000    0.000000    0.000059    0.000049 Ang=   0.01 deg.
 Variable       Old X    -DE/DX   Delta X   Delta X   Delta X     New X
                                 (Linear)    (Quad)   (Total)
    X1        6.65843  -0.00013   0.00000  -0.12280  -0.12284   6.53559
    Y1        0.00410  -0.00000   0.00000  -0.00249  -0.00377   0.00033
    Z1       -0.00529   0.00000   0.00000   0.00306   0.00465  -0.00063
    X2        7.76134   0.00000   0.00000  -0.12277  -0.12280   7.63854
    Y2       -1.07074   0.00000   0.00000   0.00521   0.00382  -1.06692
    Z2       -0.95568  -0.00000   0.00000  -0.00576  -0.00403  -0.95972
    X3        7.75352   0.00000   0.00000  -0.12158  -0.12163   7.63188
    Y3        1.04579  -0.00000   0.00000   0.00192   0.00052   1.04631
    Z3        0.99002  -0.00000   0.00000  -0.00276  -0.00104   0.98898
    X4       -7.09824   0.00015   0.00000   0.12269   0.12265  -6.97559
    Y4       -0.00832  -0.00001   0.00000   0.00019   0.00022  -0.00810
    Z4        0.00820   0.00001   0.00000  -0.00016  -0.00016   0.00803
    X5       -6.06706  -0.00001   0.00000   0.12311   0.12330  -5.94376
    Y5        1.02333   0.00001   0.00000  -0.00176  -0.00183   1.02150
    Z5       -1.06315  -0.00001   0.00000  -0.00153  -0.00141  -1.06456
    X6       -5.92930  -0.00002   0.00000   0.12158   0.12133  -5.80798
    Y6       -0.96464   0.00000   0.00000   0.00112   0.00104  -0.96359
    Z6        1.00553  -0.00000   0.00000   0.00185   0.00199   1.00752
         Item               Value     Threshold  Converged?
 Maximum Force            0.000154     0.000450     YES
 RMS     Force            0.000048     0.000300     YES
 Maximum Displacement     0.123300     0.001800     NO 
 RMS     Displacement     0.070714     0.001200     NO 
 Predicted change in Energy=-3.135063D-05
 GradGradGradGradGradGradGradGradGradGradGradGradGradGradGradGradGradGrad


 ----------------------------------------------------------------------

 Electric dipole moment (input orientation):
 (Debye = 10**-18 statcoulomb cm , SI units = C m)
                  (au)            (Debye)         (10**-30 SI)
   Tot        0.172329D+01      0.438016D+01      0.146106D+02
   x          0.172317D+01      0.437986D+01      0.146097D+02
   y          0.163576D-01      0.415769D-01      0.138686D+00
   z         -0.112788D-01     -0.286678D-01     -0.956254D-01

 Dipole polarizability, Alpha (input orientation).
 (esu units = cm**3 , SI units = C**2 m**2 J**-1)
 Alpha(0;0):
               (au)            (10**-24 esu)      (10**-40 SI)
   iso        0.142333D+02      0.210916D+01      0.234676D+01
   aniso      0.136589D+01      0.202404D+00      0.225205D+00
   xx         0.133270D+02      0.197486D+01      0.219733D+01
   yx        -0.499154D-01     -0.739670D-02     -0.822994D-02
   yy         0.147186D+02      0.218106D+01      0.242676D+01
   zx         0.461972D-01      0.684572D-02      0.761689D-02
   zy         0.118838D-01      0.176099D-02      0.195937D-02
   zz         0.146545D+02      0.217157D+01      0.241620D+01

 ----------------------------------------------------------------------

 Dipole orientation:
     8         -0.03772898         -0.05946418          6.65806203
     1          0.91575461         -1.13571917          7.75691494
     1         -1.04998855          0.96221831          7.75644780
     8          0.03769793          0.05942103         -7.09790296
     1          1.09246113          1.09128987         -6.04998895
     1         -0.95797313         -0.91744372         -5.94464822

 Electric dipole moment (dipole orientation):
 (Debye = 10**-18 statcoulomb cm , SI units = C m)
                  (au)            (Debye)         (10**-30 SI)
   Tot        0.172329D+01      0.438016D+01      0.146106D+02
   x          0.000000D+00      0.000000D+00      0.000000D+00
   y          0.000000D+00      0.000000D+00      0.000000D+00
   z          0.172329D+01      0.438016D+01      0.146106D+02

 Dipole polarizability, Alpha (dipole orientation).
 (esu units = cm**3 , SI units = C**2 m**2 J**-1)
 Alpha(0;0):
               (au)            (10**-24 esu)      (10**-40 SI)
   iso        0.142333D+02      0.210916D+01      0.234676D+01
   aniso      0.136589D+01      0.202404D+00      0.225205D+00
   xx         0.146553D+02      0.217168D+01      0.241632D+01
   yx        -0.118130D-01     -0.175051D-02     -0.194770D-02
   yy         0.147192D+02      0.218115D+01      0.242686D+01
   zx        -0.372598D-01     -0.552133D-02     -0.614330D-02
   zy        -0.371275D-01     -0.550172D-02     -0.612149D-02
   zz         0.133256D+02      0.197466D+01      0.219710D+01

 ----------------------------------------------------------------------
 Unable to Open any file for archive entry.
 1\1\GINC-B001\Freq\RwB97XD\6-311++G(d,p)\H4O2\YUNWENT\16-May-2021\0\\#
  freq rwb97xd/6-311++g(d,p) int=ultrafine\\Energy: -26.09245376\\0,1\O
 ,3.52349,0.00217,-0.002797\H,4.107124,-0.566609,-0.505725\H,4.102984,0
 .553407,0.523896\O,-3.756228,-0.004402,0.004337\H,-3.210552,0.541521,-
 0.562595\H,-3.137653,-0.510463,0.532101\\Version=ES64L-G16RevC.01\Stat
 e=1-A\HF=-152.8652697\RMSD=7.774e-09\RMSF=4.767e-05\ZeroPoint=0.044040
 2\Thermal=0.0509673\ETot=-152.8143024\HTot=-152.8133583\GTot=-152.8538
 578\Dipole=1.7231713,0.0163576,-0.0112788\DipoleDeriv=-0.3819678,-0.00
 64485,0.0076982,-0.0065463,-0.6495491,0.1171329,0.007833,0.1171339,-0.
 6692286,0.189716,0.0692455,0.0568355,0.0353515,0.3238277,-0.0588094,0.
 0255888,-0.0576374,0.3369865,0.1904346,-0.0627799,-0.0645471,-0.028815
 8,0.326765,-0.0582925,-0.0334068,-0.0594643,0.3332765,-0.3807683,0.005
 9826,-0.005443,0.0060296,-0.6641637,-0.117881,-0.0054829,-0.1178754,-0
 .6548473,0.1975625,-0.0653793,0.0676407,-0.0335372,0.3283637,0.0621911
 ,0.0344979,0.0621203,0.323643,0.1850229,0.0593796,-0.0621843,0.027518,
 0.3347565,0.0556589,-0.02903,0.0557228,0.3301698\Polar=13.3270053,-0.0
 499154,14.7185554,0.0461972,0.0118838,14.6544843\Quadrupole=-0.4131691
 ,0.2618511,0.151318,-0.3606978,0.3880681,0.0004154\PG=C01 [X(H4O2)]\NI
 mag=1\\0.46635424,-0.00840890,0.38842236,0.00822385,0.35641711,0.32825
 432,-0.23449068,0.20565205,0.18106695,0.22258183,0.16217438,-0.1995783
 6,-0.17777706,-0.18380163,0.21526920,0.14109135,-0.17628599,-0.1573193
 7,-0.16138344,0.19152361,0.17056780,-0.23190818,-0.19724341,-0.1892901
 4,0.01191294,0.02162219,0.02028702,0.21999957,-0.15376492,-0.18879823,
 -0.17863533,-0.02186370,-0.01570495,-0.01523768,0.17563384,0.20448895,
 -0.14931587,-0.18012640,-0.17088941,-0.01969510,-0.01374654,-0.0132627
 6,0.16901564,0.19387298,0.18413786,-0.00010949,-0.00000108,0.00000148,
 0.00002295,-0.00000581,-0.00000643,0.00002327,0.00000693,0.00000503,0.
 46806478,0.00000104,0.00016555,0.00003197,-0.00004778,-0.00005824,-0.0
 0000747,0.00004641,-0.00005896,-0.00000720,-0.00767878,0.34311270,-0.0
 0000144,0.00003173,0.00016408,-0.00004301,-0.00000715,-0.00005904,0.00
 004525,-0.00000716,-0.00005842,0.00889565,-0.35631364,0.37148410,0.000
 07606,-0.00001557,0.00001579,-0.00001339,0.00000968,0.00000084,-0.0000
 1407,-0.00000132,-0.00000936,-0.21069890,-0.18504979,0.19215471,0.1988
 3378,-0.00002651,-0.00010217,-0.00001894,0.00003351,0.00003168,0.00000
 566,-0.00002478,0.00003884,0.00000227,-0.14405079,-0.18321500,0.189950
 78,0.16318132,0.19715901,0.00002783,-0.00001892,-0.00010148,0.00002253
 ,0.00000274,0.00003871,-0.00003231,0.00000510,0.00003214,0.14949703,0.
 18986930,-0.19767854,-0.16942356,-0.20456072,0.21279080,0.00007805,0.0
 0001691,-0.00001794,-0.00001365,0.00000119,0.00001066,-0.00001352,-0.0
 0001083,-0.00000035,-0.25730262,0.19272890,-0.20105116,0.01181652,-0.0
 1911275,0.01990847,0.24543523,0.00002491,-0.00010915,-0.00001775,0.000
 02755,0.00004066,0.00000187,-0.00003424,0.00003434,0.00000490,0.151729
 54,-0.15994606,0.16634544,0.02187568,-0.01391236,0.01470251,-0.1736234
 3,0.17389258,-0.00002572,-0.00001752,-0.00010816,0.00003206,0.00000440
 ,0.00003465,-0.00002546,0.00000209,0.00004058,-0.15839276,0.16642704,-
 0.17385218,-0.02273843,0.01462095,-0.01508163,0.18115031,-0.18103696,0
 .18896673\\0.00012718,0.00000131,-0.00000265,-0.00000233,-0.00000446,0
 .00000141,-0.00000156,0.00000301,0.00000083,-0.00015435,0.00000876,-0.
 00000935,0.00000854,-0.00000780,0.00000641,0.00002252,-0.00000082,0.00
 000335\\\@
 The archive entry for this job was punched.


 SI MONUMENTUM REQUIRIS, CIRCUMSPICE
     -- FROM SIR CHRISTOPHER WREN'S TOMBSTONE
 Job cpu time:       0 days  0 hours  2 minutes 52.1 seconds.
 Elapsed time:       0 days  0 hours  0 minutes  5.6 seconds.
 File lengths (MBytes):  RWF=      7 Int=      0 D2E=      0 Chk=      1 Scr=      1
 Normal termination of Gaussian 16 at Sun May 16 12:48:35 2021.
