 Entering Gaussian System, Link 0=g16
 Input=dimer-scan-14.com
 Output=dimer-scan-14.log
 Initial command:
 /hpc/applications/gaussian/g16c/g16/l1.exe "/scratch/users/yunwent/wat-dimer/Gau-6612.inp" -scrdir="/scratch/users/yunwent/wat-dimer/"
 Entering Link 1 = /hpc/applications/gaussian/g16c/g16/l1.exe PID=      6613.
  
 Copyright (c) 1988-2019, Gaussian, Inc.  All Rights Reserved.
  
 This is part of the Gaussian(R) 16 program.  It is based on
 the Gaussian(R) 09 system (copyright 2009, Gaussian, Inc.),
 the Gaussian(R) 03 system (copyright 2003, Gaussian, Inc.),
 the Gaussian(R) 98 system (copyright 1998, Gaussian, Inc.),
 the Gaussian(R) 94 system (copyright 1995, Gaussian, Inc.),
 the Gaussian 92(TM) system (copyright 1992, Gaussian, Inc.),
 the Gaussian 90(TM) system (copyright 1990, Gaussian, Inc.),
 the Gaussian 88(TM) system (copyright 1988, Gaussian, Inc.),
 the Gaussian 86(TM) system (copyright 1986, Carnegie Mellon
 University), and the Gaussian 82(TM) system (copyright 1983,
 Carnegie Mellon University). Gaussian is a federally registered
 trademark of Gaussian, Inc.
  
 This software contains proprietary and confidential information,
 including trade secrets, belonging to Gaussian, Inc.
  
 This software is provided under written license and may be
 used, copied, transmitted, or stored only in accord with that
 written license.
  
 The following legend is applicable only to US Government
 contracts under FAR:
  
                    RESTRICTED RIGHTS LEGEND
  
 Use, reproduction and disclosure by the US Government is
 subject to restrictions as set forth in subparagraphs (a)
 and (c) of the Commercial Computer Software - Restricted
 Rights clause in FAR 52.227-19.
  
 Gaussian, Inc.
 340 Quinnipiac St., Bldg. 40, Wallingford CT 06492
  
  
 ---------------------------------------------------------------
 Warning -- This program may not be used in any manner that
 competes with the business of Gaussian, Inc. or will provide
 assistance to any competitor of Gaussian, Inc.  The licensee
 of this program is prohibited from giving any competitor of
 Gaussian, Inc. access to this program.  By using this program,
 the user acknowledges that Gaussian, Inc. is engaged in the
 business of creating and licensing software in the field of
 computational chemistry and represents and warrants to the
 licensee that it is not a competitor of Gaussian, Inc. and that
 it will not use this program in any manner prohibited above.
 ---------------------------------------------------------------
  

 Cite this work as:
 Gaussian 16, Revision C.01,
 M. J. Frisch, G. W. Trucks, H. B. Schlegel, G. E. Scuseria, 
 M. A. Robb, J. R. Cheeseman, G. Scalmani, V. Barone, 
 G. A. Petersson, H. Nakatsuji, X. Li, M. Caricato, A. V. Marenich, 
 J. Bloino, B. G. Janesko, R. Gomperts, B. Mennucci, H. P. Hratchian, 
 J. V. Ortiz, A. F. Izmaylov, J. L. Sonnenberg, D. Williams-Young, 
 F. Ding, F. Lipparini, F. Egidi, J. Goings, B. Peng, A. Petrone, 
 T. Henderson, D. Ranasinghe, V. G. Zakrzewski, J. Gao, N. Rega, 
 G. Zheng, W. Liang, M. Hada, M. Ehara, K. Toyota, R. Fukuda, 
 J. Hasegawa, M. Ishida, T. Nakajima, Y. Honda, O. Kitao, H. Nakai, 
 T. Vreven, K. Throssell, J. A. Montgomery, Jr., J. E. Peralta, 
 F. Ogliaro, M. J. Bearpark, J. J. Heyd, E. N. Brothers, K. N. Kudin, 
 V. N. Staroverov, T. A. Keith, R. Kobayashi, J. Normand, 
 K. Raghavachari, A. P. Rendell, J. C. Burant, S. S. Iyengar, 
 J. Tomasi, M. Cossi, J. M. Millam, M. Klene, C. Adamo, R. Cammi, 
 J. W. Ochterski, R. L. Martin, K. Morokuma, O. Farkas, 
 J. B. Foresman, and D. J. Fox, Gaussian, Inc., Wallingford CT, 2019.
 
 ******************************************
 Gaussian 16:  ES64L-G16RevC.01  3-Jul-2019
                15-May-2021 
 ******************************************
 %chk=dimer-scan-14.chk
 %nproc=36
 Will use up to   36 processors via shared memory.
 %mem=80GB
 ----------------------------------------------------------------------
 # opt(MaxCycles=200,RecalcFC=3,loose,modredundant) int(ultrafine) rwb9
 7xd/6-311++g(d,p)
 ----------------------------------------------------------------------
 1/6=200,7=-1,10=4,18=120,19=15,26=4,38=1,71=3/1,3;
 2/9=110,12=2,17=6,18=5,40=1/2;
 3/5=4,6=6,7=1111,11=2,25=1,30=1,71=2,74=-58,75=-5,116=1,140=1/1,2,3;
 4//1;
 5/5=2,38=5/2;
 8/6=4,10=90,11=11/1;
 11/6=1,8=1,9=11,15=111,16=1/1,2,10;
 10/6=1,13=1/2;
 6/7=2,8=2,9=2,10=2,28=1/1;
 7/10=1,25=1/1,2,3,16;
 1/6=200,7=-1,10=4,18=20,19=15,26=4,71=3/3(3);
 2/9=110/2;
 7/9=1,25=1,44=-1/16;
 99//99;
 2/9=110/2;
 3/5=4,6=6,7=1111,11=2,25=1,30=1,71=2,74=-58,75=-5,116=1,140=1/1,2,3;
 4/5=5,16=3,69=1/1;
 5/5=2,38=5/2;
 8/6=4,10=90,11=11/1;
 11/6=1,8=1,9=11,15=111,16=1/1,2,10;
 10/6=1,13=1/2;
 7/10=1,25=1/1,2,3,16;
 1/6=200,7=-1,18=20,19=15,26=4,71=3/3(-8);
 2/9=110/2;
 6/7=2,8=2,9=2,10=2,19=2,28=1/1;
 7/9=1,25=1,44=-1/16;
 99/9=1/99;
 --------------------
 Energy: -26.09245376
 --------------------
 Symbolic Z-matrix:
 Charge =  0 Multiplicity = 1
 O                     1.36537  -0.00007   0.10009 
 H                     1.77443   0.76458  -0.30816 
 H                     1.77489  -0.764    -0.30902 
 O                    -1.50599   0.00008  -0.11934 
 H                    -1.87612  -0.00047   0.76291 
 H                    -0.54824  -0.00018   0.00826 
 
 Add virtual bond connecting atoms H6         and O1         Dist= 3.62D+00.
 The following ModRedundant input section has been read:
 B       1       4 S  11 0.4000                                                
 

 GradGradGradGradGradGradGradGradGradGradGradGradGradGradGradGradGradGrad
 Berny optimization.
 Initialization pass.
                           ----------------------------
                           !    Initial Parameters    !
                           ! (Angstroms and Degrees)  !
 --------------------------                            --------------------------
 ! Name  Definition              Value          Derivative Info.                !
 --------------------------------------------------------------------------------
 ! R1    R(1,2)                  0.9585         calculate D2E/DX2 analytically  !
 ! R2    R(1,3)                  0.9585         calculate D2E/DX2 analytically  !
 ! R3    R(1,4)                  2.8797         Scan                            !
 ! R4    R(1,6)                  1.9158         calculate D2E/DX2 analytically  !
 ! R5    R(4,5)                  0.9567         calculate D2E/DX2 analytically  !
 ! R6    R(4,6)                  0.9662         calculate D2E/DX2 analytically  !
 ! A1    A(2,1,3)              105.7648         calculate D2E/DX2 analytically  !
 ! A2    A(2,1,6)              113.9492         calculate D2E/DX2 analytically  !
 ! A3    A(3,1,6)              113.9704         calculate D2E/DX2 analytically  !
 ! A4    A(5,4,6)              105.1703         calculate D2E/DX2 analytically  !
 ! A5    L(1,6,4,5,-1)         184.8416         calculate D2E/DX2 analytically  !
 ! A6    L(1,6,4,5,-2)         179.9706         calculate D2E/DX2 analytically  !
 ! D1    D(2,1,3,6)           -125.9528         calculate D2E/DX2 analytically  !
 ! D2    D(2,1,4,5)           -119.8525         calculate D2E/DX2 analytically  !
 ! D3    D(3,1,4,5)            119.857          calculate D2E/DX2 analytically  !
 --------------------------------------------------------------------------------
 Trust Radius=3.00D-01 FncErr=1.00D-07 GrdErr=1.00D-06 EigMax=2.50D+02 EigMin=1.00D-04
 Number of optimizations in scan=  12
 Number of steps in this run=    100 maximum allowed number of steps=    100.
 GradGradGradGradGradGradGradGradGradGradGradGradGradGradGradGradGradGrad

                          Input orientation:                          
 ---------------------------------------------------------------------
 Center     Atomic      Atomic             Coordinates (Angstroms)
 Number     Number       Type             X           Y           Z
 ---------------------------------------------------------------------
      1          8           0        1.365366   -0.000067    0.100093
      2          1           0        1.774431    0.764580   -0.308159
      3          1           0        1.774890   -0.764005   -0.309024
      4          8           0       -1.505987    0.000076   -0.119342
      5          1           0       -1.876116   -0.000466    0.762912
      6          1           0       -0.548237   -0.000184    0.008263
 ---------------------------------------------------------------------
                    Distance matrix (angstroms):
                    1          2          3          4          5
     1  O    0.000000
     2  H    0.958483   0.000000
     3  H    0.958482   1.528585   0.000000
     4  O    2.879726   3.373612   3.374012   0.000000
     5  H    3.308554   3.880590   3.880964   0.956748   0.000000
     6  H    1.915805   2.465719   2.465971   0.966214   1.527337
                    6
     6  H    0.000000
 Stoichiometry    H4O2
 Framework group  C1[X(H4O2)]
 Deg. of freedom    12
 Full point group                 C1      NOp   1
 Largest Abelian subgroup         C1      NOp   1
 Largest concise Abelian subgroup C1      NOp   1
                         Standard orientation:                         
 ---------------------------------------------------------------------
 Center     Atomic      Atomic             Coordinates (Angstroms)
 Number     Number       Type             X           Y           Z
 ---------------------------------------------------------------------
      1          8           0        1.365366   -0.000067    0.100093
      2          1           0        1.774431    0.764580   -0.308159
      3          1           0        1.774890   -0.764005   -0.309024
      4          8           0       -1.505987    0.000076   -0.119342
      5          1           0       -1.876116   -0.000466    0.762912
      6          1           0       -0.548237   -0.000184    0.008263
 ---------------------------------------------------------------------
 Rotational constants (GHZ):         223.6218420           6.5273877           6.5193980
 Standard basis: 6-311++G(d,p) (5D, 7F)
 There are    74 symmetry adapted cartesian basis functions of A   symmetry.
 There are    72 symmetry adapted basis functions of A   symmetry.
    72 basis functions,   108 primitive gaussians,    74 cartesian basis functions
    10 alpha electrons       10 beta electrons
       nuclear repulsion energy        36.7938732949 Hartrees.
 NAtoms=    6 NActive=    6 NUniq=    6 SFac= 1.00D+00 NAtFMM=   60 NAOKFM=F Big=F
 Integral buffers will be    131072 words long.
 Raffenetti 2 integral format.
 Two-electron integral symmetry is turned on.
 Nuclear repulsion after empirical dispersion term =       36.7930683796 Hartrees.
 One-electron integrals computed using PRISM.
 NBasis=    72 RedAO= T EigKep=  1.07D-03  NBF=    72
 NBsUse=    72 1.00D-06 EigRej= -1.00D+00 NBFU=    72
 ExpMin= 3.60D-02 ExpMax= 8.59D+03 ExpMxC= 1.30D+03 IAcc=3 IRadAn=         5 AccDes= 0.00D+00
 Harris functional with IExCor= 4639 and IRadAn=       5 diagonalized for initial guess.
 HarFok:  IExCor= 4639 AccDes= 0.00D+00 IRadAn=         5 IDoV= 1 UseB2=F ITyADJ=14
 ICtDFT=  3500011 ScaDFX=  1.000000  1.000000  1.000000  1.000000
 FoFCou: FMM=F IPFlag=           0 FMFlag=      100000 FMFlg1=           0
         NFxFlg=           0 DoJE=T BraDBF=F KetDBF=T FulRan=T
         wScrn=  0.000000 ICntrl=       500 IOpCl=  0 I1Cent=   200000004 NGrid=           0
         NMat0=    1 NMatS0=      1 NMatT0=    0 NMatD0=    1 NMtDS0=    0 NMtDT0=    0
 Petite list used in FoFCou.
 Keep R1 ints in memory in canonical form, NReq=39419504.
 Requested convergence on RMS density matrix=1.00D-08 within 128 cycles.
 Requested convergence on MAX density matrix=1.00D-06.
 Requested convergence on             energy=1.00D-06.
 No special actions if energy rises.
 SCF Done:  E(RwB97XD) =  -152.874735870     A.U. after   11 cycles
            NFock= 11  Conv=0.35D-08     -V/T= 2.0029
 DoSCS=F DFT=T ScalE2(SS,OS)=  1.000000  1.000000
 Range of M.O.s used for correlation:     1    72
 NBasis=    72 NAE=    10 NBE=    10 NFC=     0 NFV=     0
 NROrb=     72 NOA=    10 NOB=    10 NVA=    62 NVB=    62

 **** Warning!!: The largest alpha MO coefficient is  0.12356658D+02

 Symmetrizing basis deriv contribution to polar:
 IMax=3 JMax=2 DiffMx= 0.00D+00
 G2DrvN: will do     7 centers at a time, making    1 passes.
 Calling FoFCou, ICntrl=  3107 FMM=F I1Cent=   0 AccDes= 0.00D+00.
 End of G2Drv F.D. properties file   721 does not exist.
 End of G2Drv F.D. properties file   722 does not exist.
 End of G2Drv F.D. properties file   788 does not exist.
          IDoAtm=111111
          Differentiating once with respect to nuclear coordinates.
 Keep R1 ints in memory in canonical form, NReq=39298844.
          There are    21 degrees of freedom in the 1st order CPHF.  IDoFFX=6 NUNeed=     0.
     15 vectors produced by pass  0 Test12= 2.95D-15 4.76D-09 XBig12= 3.52D-02 6.58D-02.
 AX will form    15 AO Fock derivatives at one time.
     15 vectors produced by pass  1 Test12= 2.95D-15 4.76D-09 XBig12= 2.01D-03 1.55D-02.
     15 vectors produced by pass  2 Test12= 2.95D-15 4.76D-09 XBig12= 6.59D-05 3.35D-03.
     15 vectors produced by pass  3 Test12= 2.95D-15 4.76D-09 XBig12= 9.20D-07 3.15D-04.
     15 vectors produced by pass  4 Test12= 2.95D-15 4.76D-09 XBig12= 8.46D-09 2.82D-05.
     15 vectors produced by pass  5 Test12= 2.95D-15 4.76D-09 XBig12= 4.39D-11 1.65D-06.
     10 vectors produced by pass  6 Test12= 2.95D-15 4.76D-09 XBig12= 2.16D-13 1.33D-07.
      3 vectors produced by pass  7 Test12= 2.95D-15 4.76D-09 XBig12= 9.46D-16 6.30D-09.
 InvSVY:  IOpt=1 It=  1 EMax= 1.11D-15
 Solved reduced A of dimension   103 with    15 vectors.
 End of Minotr F.D. properties file   721 does not exist.
 End of Minotr F.D. properties file   722 does not exist.
 End of Minotr F.D. properties file   788 does not exist.

 **********************************************************************

            Population analysis using the SCF Density.

 **********************************************************************

 Orbital symmetries:
       Occupied  (A) (A) (A) (A) (A) (A) (A) (A) (A) (A)
       Virtual   (A) (A) (A) (A) (A) (A) (A) (A) (A) (A) (A) (A)
                 (A) (A) (A) (A) (A) (A) (A) (A) (A) (A) (A) (A)
                 (A) (A) (A) (A) (A) (A) (A) (A) (A) (A) (A) (A)
                 (A) (A) (A) (A) (A) (A) (A) (A) (A) (A) (A) (A)
                 (A) (A) (A) (A) (A) (A) (A) (A) (A) (A) (A) (A)
                 (A) (A)
 The electronic state is 1-A.
 Alpha  occ. eigenvalues --  -19.28230 -19.22013  -1.15051  -1.08822  -0.65737
 Alpha  occ. eigenvalues --   -0.60224  -0.51546  -0.45293  -0.43203  -0.37762
 Alpha virt. eigenvalues --    0.03018   0.06860   0.07038   0.11358   0.19472
 Alpha virt. eigenvalues --    0.20922   0.21514   0.23193   0.24770   0.26178
 Alpha virt. eigenvalues --    0.28592   0.29444   0.30020   0.32690   0.37931
 Alpha virt. eigenvalues --    0.40924   0.56712   0.61352   0.63086   0.71309
 Alpha virt. eigenvalues --    1.02968   1.05800   1.10205   1.11284   1.12011
 Alpha virt. eigenvalues --    1.15697   1.29516   1.31422   1.37896   1.38227
 Alpha virt. eigenvalues --    1.40896   1.53116   1.58124   1.65401   1.74527
 Alpha virt. eigenvalues --    1.83110   2.06202   2.15365   2.20011   2.35116
 Alpha virt. eigenvalues --    2.54537   2.58984   2.64078   2.78207   3.15554
 Alpha virt. eigenvalues --    3.19936   3.21798   3.26786   3.37202   3.43815
 Alpha virt. eigenvalues --    3.75150   3.80813   3.96094   4.03121   5.06139
 Alpha virt. eigenvalues --    5.07706   5.44655   5.49970   5.71442   5.81727
 Alpha virt. eigenvalues --   49.97912  50.05398
          Condensed to atoms (all electrons):
               1          2          3          4          5          6
     1  O    7.987601   0.317184   0.317184   0.025836   0.000597  -0.083709
     2  H    0.317184   0.418440  -0.020975  -0.002513   0.000325   0.006400
     3  H    0.317184  -0.020975   0.418440  -0.002510   0.000325   0.006397
     4  O    0.025836  -0.002513  -0.002510   7.978711   0.297420   0.281569
     5  H    0.000597   0.000325   0.000325   0.297420   0.467617  -0.018220
     6  H   -0.083709   0.006400   0.006397   0.281569  -0.018220   0.478569
 Mulliken charges:
               1
     1  O   -0.564692
     2  H    0.281138
     3  H    0.281138
     4  O   -0.578514
     5  H    0.251936
     6  H    0.328994
 Sum of Mulliken charges =  -0.00000
 Mulliken charges with hydrogens summed into heavy atoms:
               1
     1  O   -0.002416
     4  O    0.002416
 APT charges:
               1
     1  O   -1.048606
     2  H    0.533983
     3  H    0.534126
     4  O   -0.732433
     5  H    0.530230
     6  H    0.182700
 Sum of APT charges =  -0.00000
 APT charges with hydrogens summed into heavy atoms:
               1
     1  O    0.019503
     4  O   -0.019503
 Electronic spatial extent (au):  <R**2>=            188.6438
 Charge=              0.0000 electrons
 Dipole moment (field-independent basis, Debye):
    X=              3.1302    Y=             -0.0002    Z=              0.3739  Tot=              3.1524
 Quadrupole moment (field-independent basis, Debye-Ang):
   XX=            -10.9270   YY=            -12.0012   ZZ=            -13.1617
   XY=              0.0038   XZ=             -6.5125   YZ=              0.0004
 Traceless Quadrupole moment (field-independent basis, Debye-Ang):
   XX=              1.1030   YY=              0.0288   ZZ=             -1.1318
   XY=              0.0038   XZ=             -6.5125   YZ=              0.0004
 Octapole moment (field-independent basis, Debye-Ang**2):
  XXX=             12.4998  YYY=              0.0017  ZZZ=              0.9427  XYY=              6.5537
  XXY=             -0.0028  XXZ=              1.8794  XZZ=             -1.1620  YZZ=             -0.0011
  YYZ=             -0.5328  XYZ=              0.0044
 Hexadecapole moment (field-independent basis, Debye-Ang**3):
 XXXX=           -164.6059 YYYY=            -13.6145 ZZZZ=            -14.9350 XXXY=              0.0084
 XXXZ=            -25.5942 YYYX=              0.0055 YYYZ=              0.0004 ZZZX=             -5.4892
 ZZZY=              0.0001 XXYY=            -27.7701 XXZZ=            -30.7761 YYZZ=             -4.9153
 XXYZ=              0.0016 YYXZ=             -2.6650 ZZXY=              0.0001
 N-N= 3.679306837964D+01 E-N=-4.354019479846D+02  KE= 1.524316762986D+02
  Exact polarizability:       0.000       0.000       0.000       0.000       0.000       0.000
 Approx polarizability:      15.045      -0.000      13.546      -1.147       0.000      12.973
 Calling FoFJK, ICntrl=    100127 FMM=F ISym2X=0 I1Cent= 0 IOpClX= 0 NMat=1 NMatS=1 NMatT=0.
 ***** Axes restored to original set *****
 -------------------------------------------------------------------
 Center     Atomic                   Forces (Hartrees/Bohr)
 Number     Number              X              Y              Z
 -------------------------------------------------------------------
      1        8           0.000073070    0.000000356    0.000025155
      2        1          -0.000033523    0.000004876   -0.000006166
      3        1          -0.000034244   -0.000005310   -0.000006222
      4        8           0.000006633   -0.000000782   -0.000000398
      5        1          -0.000002001   -0.000000015   -0.000005263
      6        1          -0.000009935    0.000000875   -0.000007106
 -------------------------------------------------------------------
 Cartesian Forces:  Max     0.000073070 RMS     0.000021888
 FormGI is forming the generalized inverse of G from B-inverse, IUseBI=4.

 GradGradGradGradGradGradGradGradGradGradGradGradGradGradGradGradGradGrad
 Berny optimization.
 Internal  Forces:  Max     0.000039425 RMS     0.000016673
 Search for a local minimum.
 Step number   1 out of a maximum of  100 on scan point     1 out of    12
 All quantities printed in internal units (Hartrees-Bohrs-Radians)
 Mixed Optimization -- En-DIIS/RFO-DIIS
 Second derivative matrix not updated -- analytic derivatives used.
 The second derivative matrix:
                          R1        R2        R3        R4        R5
           R1           0.55988
           R2          -0.00503   0.55988
           R3          -0.00001  -0.00001   0.06281
           R4           0.00103   0.00103  -0.05407   0.05858
           R5           0.00001   0.00001  -0.00167   0.00118   0.56438
           R6          -0.00080  -0.00080   0.11760  -0.11322  -0.00298
           A1           0.01696   0.01701   0.00021   0.00038  -0.00004
           A2          -0.00506  -0.00700   0.00017  -0.00025   0.00000
           A3          -0.00632  -0.00361   0.00067  -0.00046  -0.00003
           A4          -0.00003  -0.00003   0.00901  -0.00639   0.02920
           A5           0.00234   0.00242   0.00542  -0.00403  -0.00114
           A6          -0.00017   0.00017  -0.00001   0.00001  -0.00000
           D1          -0.00205  -0.00142  -0.00083   0.00035   0.00005
           D2           0.00678   0.00711  -0.00077   0.00103   0.00012
           D3          -0.00679  -0.00709   0.00077  -0.00103  -0.00012
                          R6        A1        A2        A3        A4
           R6           0.23222
           A1           0.00045   0.06361
           A2           0.00025  -0.02402   0.01279
           A3           0.00116  -0.02254   0.00399   0.01666
           A4           0.01495  -0.00021  -0.00001  -0.00020   0.14339
           A5           0.01051   0.00604  -0.00169   0.00024  -0.00459
           A6          -0.00002   0.00006  -0.00234   0.00326   0.00000
           D1          -0.00144  -0.00199  -0.00099   0.00069   0.00031
           D2          -0.00158   0.02430  -0.00991  -0.00684   0.00028
           D3           0.00158  -0.02428   0.00919   0.00783  -0.00028
                          A5        A6        D1        D2        D3
           A5           0.01027
           A6           0.00010   0.00382
           D1          -0.00254   0.00077   0.00230
           D2           0.00219   0.00074  -0.00101   0.01022
           D3          -0.00216  -0.00002   0.00124  -0.00917   0.00999
 ITU=  0
     Eigenvalues ---    0.00084   0.00187   0.00250   0.01002   0.01397
     Eigenvalues ---    0.09788   0.13972   0.26169   0.55685   0.56492
     Eigenvalues ---    0.566411000.000001000.000001000.000001000.00000
 RFO step:  Lambda=-1.03340420D-06 EMin= 8.42333523D-04
 Linear search not attempted -- first point.
 Iteration  1 RMS(Cart)=  0.00537202 RMS(Int)=  0.00004567
 Iteration  2 RMS(Cart)=  0.00003498 RMS(Int)=  0.00002636
 Iteration  3 RMS(Cart)=  0.00000000 RMS(Int)=  0.00002636
 Iteration  1 RMS(Cart)=  0.00000197 RMS(Int)=  0.00000162
 Iteration  2 RMS(Cart)=  0.00000065 RMS(Int)=  0.00000179
 Variable       Old X    -DE/DX   Delta X   Delta X   Delta X     New X
                                 (Linear)    (Quad)   (Total)
    R1        1.81127  -0.00001   0.00000   0.00002   0.00002   1.81129
    R2        1.81127  -0.00001   0.00000   0.00002   0.00002   1.81129
    R3        5.44189   0.00000   0.00000   0.00000  -0.00000   5.44189
    R4        3.62035   0.00001   0.00000   0.00071   0.00073   3.62108
    R5        1.80799  -0.00000   0.00000  -0.00001  -0.00001   1.80798
    R6        1.82588  -0.00000   0.00000   0.00002   0.00004   1.82592
    A1        1.84594   0.00003   0.00000  -0.00015  -0.00021   1.84574
    A2        1.98879  -0.00002   0.00000  -0.00685  -0.00688   1.98190
    A3        1.98916  -0.00004   0.00000  -0.00727  -0.00730   1.98185
    A4        1.83557   0.00001   0.00000   0.00029   0.00029   1.83586
    A5        3.22609   0.00002   0.00000   0.00721   0.00722   3.23331
    A6        3.14108   0.00000   0.00000   0.00054   0.00054   3.14162
    D1       -2.19829   0.00003   0.00000   0.01378   0.01378  -2.18451
    D2       -2.09182  -0.00001   0.00000  -0.00636  -0.00631  -2.09813
    D3        2.09190   0.00001   0.00000   0.00635   0.00631   2.09821
         Item               Value     Threshold  Converged?
 Maximum Force            0.000039     0.002500     YES
 RMS     Force            0.000017     0.001667     YES
 Maximum Displacement     0.010147     0.010000     NO 
 RMS     Displacement     0.005385     0.006667     YES
 Predicted change in Energy=-5.167228D-07
 GradGradGradGradGradGradGradGradGradGradGradGradGradGradGradGradGradGrad

                          Input orientation:                          
 ---------------------------------------------------------------------
 Center     Atomic      Atomic             Coordinates (Angstroms)
 Number     Number       Type             X           Y           Z
 ---------------------------------------------------------------------
      1          8           0        1.368403    0.000026    0.103830
      2          1           0        1.771374    0.764512   -0.310759
      3          1           0        1.771429   -0.763970   -0.311609
      4          8           0       -1.502605   -0.000055   -0.120060
      5          1           0       -1.878590   -0.000530    0.759709
      6          1           0       -0.545664   -0.000048    0.013632
 ---------------------------------------------------------------------
                    Distance matrix (angstroms):
                    1          2          3          4          5
     1  O    0.000000
     2  H    0.958494   0.000000
     3  H    0.958494   1.528483   0.000000
     4  O    2.879725   3.367472   3.367426   0.000000
     5  H    3.312574   3.879875   3.879846   0.956744   0.000000
     6  H    1.916191   2.461391   2.461357   0.966235   1.527522
                    6
     6  H    0.000000
 Stoichiometry    H4O2
 Framework group  C1[X(H4O2)]
 Deg. of freedom    12
 Full point group                 C1      NOp   1
 Largest Abelian subgroup         C1      NOp   1
 Largest concise Abelian subgroup C1      NOp   1
                         Standard orientation:                         
 ---------------------------------------------------------------------
 Center     Atomic      Atomic             Coordinates (Angstroms)
 Number     Number       Type             X           Y           Z
 ---------------------------------------------------------------------
      1          8           0        1.366260    0.000023    0.101389
      2          1           0        1.768863    0.764164   -0.314194
      3          1           0        1.768812   -0.764319   -0.313874
      4          8           0       -1.504974   -0.000030   -0.119592
      5          1           0       -1.880067    0.000195    0.760559
      6          1           0       -0.547897    0.000014    0.013131
 ---------------------------------------------------------------------
 Rotational constants (GHZ):         222.9145203           6.5296892           6.5223241
 Standard basis: 6-311++G(d,p) (5D, 7F)
 There are    74 symmetry adapted cartesian basis functions of A   symmetry.
 There are    72 symmetry adapted basis functions of A   symmetry.
    72 basis functions,   108 primitive gaussians,    74 cartesian basis functions
    10 alpha electrons       10 beta electrons
       nuclear repulsion energy        36.7972634582 Hartrees.
 NAtoms=    6 NActive=    6 NUniq=    6 SFac= 1.00D+00 NAtFMM=   60 NAOKFM=F Big=F
 Integral buffers will be    131072 words long.
 Raffenetti 2 integral format.
 Two-electron integral symmetry is turned on.
 Nuclear repulsion after empirical dispersion term =       36.7964563152 Hartrees.
 One-electron integrals computed using PRISM.
 NBasis=    72 RedAO= T EigKep=  1.07D-03  NBF=    72
 NBsUse=    72 1.00D-06 EigRej= -1.00D+00 NBFU=    72
 Initial guess from the checkpoint file:  "dimer-scan-14.chk"
 B after Tr=    -0.000000    0.000000    0.000000
         Rot=    1.000000    0.000424   -0.000008    0.000009 Ang=   0.05 deg.
 Keep R1 ints in memory in canonical form, NReq=39419504.
 Requested convergence on RMS density matrix=1.00D-08 within 128 cycles.
 Requested convergence on MAX density matrix=1.00D-06.
 Requested convergence on             energy=1.00D-06.
 No special actions if energy rises.
 SCF Done:  E(RwB97XD) =  -152.874736379     A.U. after    9 cycles
            NFock=  9  Conv=0.67D-08     -V/T= 2.0029
 DoSCS=F DFT=T ScalE2(SS,OS)=  1.000000  1.000000
 Range of M.O.s used for correlation:     1    72
 NBasis=    72 NAE=    10 NBE=    10 NFC=     0 NFV=     0
 NROrb=     72 NOA=    10 NOB=    10 NVA=    62 NVB=    62

 **** Warning!!: The largest alpha MO coefficient is  0.12338808D+02

 Symmetrizing basis deriv contribution to polar:
 IMax=3 JMax=2 DiffMx= 0.00D+00
 Calling FoFJK, ICntrl=      2127 FMM=F ISym2X=0 I1Cent= 0 IOpClX= 0 NMat=1 NMatS=1 NMatT=0.
 ***** Axes restored to original set *****
 -------------------------------------------------------------------
 Center     Atomic                   Forces (Hartrees/Bohr)
 Number     Number              X              Y              Z
 -------------------------------------------------------------------
      1        8           0.000006503   -0.000000158   -0.000004897
      2        1          -0.000001785    0.000004304    0.000002635
      3        1          -0.000001605   -0.000004232    0.000002646
      4        8           0.000005695    0.000000055    0.000000164
      5        1           0.000000200   -0.000000057   -0.000000257
      6        1          -0.000009008    0.000000089   -0.000000292
 -------------------------------------------------------------------
 Cartesian Forces:  Max     0.000009008 RMS     0.000003623

 GradGradGradGradGradGradGradGradGradGradGradGradGradGradGradGradGradGrad
 Berny optimization.
 Using GEDIIS/GDIIS optimizer.
 FormGI is forming the generalized inverse of G from B-inverse, IUseBI=4.
 Internal  Forces:  Max     0.000005620 RMS     0.000002554
 Search for a local minimum.
 Step number   2 out of a maximum of  100 on scan point     1 out of    12
 All quantities printed in internal units (Hartrees-Bohrs-Radians)
 Mixed Optimization -- En-DIIS/RFO-DIIS
 Swapping is turned off.
 Update second derivatives using D2CorX and points    1    2
 DE= -5.10D-07 DEPred=-5.17D-07 R= 9.86D-01
 Trust test= 9.86D-01 RLast= 2.06D-02 DXMaxT set to 3.00D-01
 The second derivative matrix:
                          R1        R2        R3        R4        R5
           R1           0.55990
           R2          -0.00500   0.55990
           R3          -0.00003  -0.00003   0.06281
           R4           0.00105   0.00105  -0.05407   0.05857
           R5           0.00001   0.00001  -0.00168   0.00119   0.56438
           R6          -0.00084  -0.00083   0.11760  -0.11321  -0.00300
           A1           0.01697   0.01702   0.00025   0.00031  -0.00001
           A2          -0.00505  -0.00699   0.00014  -0.00021  -0.00001
           A3          -0.00627  -0.00356   0.00060  -0.00037  -0.00004
           A4          -0.00005  -0.00005   0.00903  -0.00640   0.02920
           A5           0.00232   0.00240   0.00545  -0.00407  -0.00114
           A6          -0.00017   0.00016  -0.00001   0.00001  -0.00000
           D1          -0.00211  -0.00147  -0.00077   0.00028   0.00005
           D2           0.00681   0.00714  -0.00078   0.00104   0.00013
           D3          -0.00683  -0.00712   0.00078  -0.00104  -0.00013
                          R6        A1        A2        A3        A4
           R6           0.23221
           A1           0.00055   0.06334
           A2           0.00018  -0.02387   0.01272
           A3           0.00100  -0.02229   0.00388   0.01656
           A4           0.01498  -0.00024  -0.00000  -0.00020   0.14340
           A5           0.01058   0.00592  -0.00164   0.00030  -0.00459
           A6          -0.00001   0.00006  -0.00234   0.00326   0.00000
           D1          -0.00132  -0.00215  -0.00093   0.00071   0.00033
           D2          -0.00160   0.02428  -0.00988  -0.00676   0.00026
           D3           0.00161  -0.02426   0.00917   0.00775  -0.00026
                          A5        A6        D1        D2        D3
           A5           0.01023
           A6           0.00009   0.00382
           D1          -0.00256   0.00077   0.00234
           D2           0.00216   0.00074  -0.00109   0.01025
           D3          -0.00213  -0.00002   0.00132  -0.00920   0.01002
 ITU=  0  0
     Eigenvalues ---    0.00084   0.00187   0.00254   0.01003   0.01400
     Eigenvalues ---    0.09743   0.13972   0.26177   0.55690   0.56492
     Eigenvalues ---    0.566411000.000001000.000001000.000001000.00000
 En-DIIS/RFO-DIIS/Sim-DIIS IScMMF=       -3 using points:     2    1
 RFO step:  Lambda=-4.90740521D-10.
 DidBck=F Rises=F RFO-DIIS coefs:    0.98665    0.01335
 Iteration  1 RMS(Cart)=  0.00006333 RMS(Int)=  0.00000035
 Iteration  2 RMS(Cart)=  0.00000001 RMS(Int)=  0.00000035
 Iteration  1 RMS(Cart)=  0.00000019 RMS(Int)=  0.00000015
 Variable       Old X    -DE/DX   Delta X   Delta X   Delta X     New X
                                 (Linear)    (Quad)   (Total)
    R1        1.81129   0.00000  -0.00000  -0.00000  -0.00000   1.81129
    R2        1.81129   0.00000  -0.00000  -0.00000  -0.00000   1.81129
    R3        5.44189  -0.00000   0.00000   0.00000   0.00000   5.44189
    R4        3.62108   0.00000  -0.00001   0.00003   0.00002   3.62109
    R5        1.80798  -0.00000   0.00000  -0.00000  -0.00000   1.80798
    R6        1.82592  -0.00000  -0.00000  -0.00002  -0.00002   1.82590
    A1        1.84574   0.00001   0.00000   0.00006   0.00006   1.84580
    A2        1.98190  -0.00000   0.00009  -0.00003   0.00006   1.98197
    A3        1.98185  -0.00000   0.00010   0.00002   0.00012   1.98197
    A4        1.83586  -0.00000  -0.00000   0.00000  -0.00000   1.83586
    A5        3.23331   0.00000  -0.00010   0.00008  -0.00002   3.23329
    A6        3.14162  -0.00000  -0.00001  -0.00003  -0.00004   3.14159
    D1       -2.18451  -0.00000  -0.00018  -0.00002  -0.00020  -2.18472
    D2       -2.09813   0.00000   0.00008  -0.00002   0.00007  -2.09807
    D3        2.09821  -0.00000  -0.00008  -0.00007  -0.00016   2.09805
         Item               Value     Threshold  Converged?
 Maximum Force            0.000006     0.002500     YES
 RMS     Force            0.000003     0.001667     YES
 Maximum Displacement     0.000127     0.010000     YES
 RMS     Displacement     0.000063     0.006667     YES
 Predicted change in Energy=-4.742431D-10
 Optimization completed.
    -- Stationary point found.
                           ----------------------------
                           !   Optimized Parameters   !
                           ! (Angstroms and Degrees)  !
 --------------------------                            --------------------------
 ! Name  Definition              Value          Derivative Info.                !
 --------------------------------------------------------------------------------
 ! R1    R(1,2)                  0.9585         -DE/DX =    0.0                 !
 ! R2    R(1,3)                  0.9585         -DE/DX =    0.0                 !
 ! R3    R(1,4)                  2.8797         -DE/DX =    0.0                 !
 ! R4    R(1,6)                  1.9162         -DE/DX =    0.0                 !
 ! R5    R(4,5)                  0.9567         -DE/DX =    0.0                 !
 ! R6    R(4,6)                  0.9662         -DE/DX =    0.0                 !
 ! A1    A(2,1,3)              105.7529         -DE/DX =    0.0                 !
 ! A2    A(2,1,6)              113.5547         -DE/DX =    0.0                 !
 ! A3    A(3,1,6)              113.5519         -DE/DX =    0.0                 !
 ! A4    A(5,4,6)              105.1871         -DE/DX =    0.0                 !
 ! A5    L(1,6,4,5,-1)         185.2552         -DE/DX =    0.0                 !
 ! A6    L(1,6,4,5,-2)         180.0018         -DE/DX =    0.0                 !
 ! D1    D(2,1,3,6)           -125.1633         -DE/DX =    0.0                 !
 ! D2    D(2,1,4,5)           -120.2143         -DE/DX =    0.0                 !
 ! D3    D(3,1,4,5)            120.2184         -DE/DX =    0.0                 !
 --------------------------------------------------------------------------------
 Iteration  1 RMS(Cart)=  0.03624280 RMS(Int)=  0.16253259
 Iteration  2 RMS(Cart)=  0.02430727 RMS(Int)=  0.14354794
 Iteration  3 RMS(Cart)=  0.01624871 RMS(Int)=  0.13270471
 Iteration  4 RMS(Cart)=  0.01085151 RMS(Int)=  0.12650911
 Iteration  5 RMS(Cart)=  0.00724511 RMS(Int)=  0.12291407
 Iteration  6 RMS(Cart)=  0.00483624 RMS(Int)=  0.12077847
 Iteration  7 RMS(Cart)=  0.00322786 RMS(Int)=  0.11947745
 Iteration  8 RMS(Cart)=  0.00215420 RMS(Int)=  0.11866649
 Iteration  9 RMS(Cart)=  0.00143758 RMS(Int)=  0.11815137
 Iteration 10 RMS(Cart)=  0.00095932 RMS(Int)=  0.11781939
 Iteration 11 RMS(Cart)=  0.00064016 RMS(Int)=  0.11760315
 Iteration 12 RMS(Cart)=  0.00042717 RMS(Int)=  0.11746122
 Iteration 13 RMS(Cart)=  0.00028504 RMS(Int)=  0.11736757
 Iteration 14 RMS(Cart)=  0.00019020 RMS(Int)=  0.11730556
 Iteration 15 RMS(Cart)=  0.00012692 RMS(Int)=  0.11726438
 Iteration 16 RMS(Cart)=  0.00008469 RMS(Int)=  0.11723701
 Iteration 17 RMS(Cart)=  0.00005651 RMS(Int)=  0.11721878
 Iteration 18 RMS(Cart)=  0.00003771 RMS(Int)=  0.11720664
 Iteration 19 RMS(Cart)=  0.00002516 RMS(Int)=  0.11719854
 Iteration 20 RMS(Cart)=  0.00001679 RMS(Int)=  0.11719314
 Iteration 21 RMS(Cart)=  0.00001120 RMS(Int)=  0.11718954
 Iteration 22 RMS(Cart)=  0.00000748 RMS(Int)=  0.11718714
 Iteration 23 RMS(Cart)=  0.00000499 RMS(Int)=  0.11718554
 Iteration 24 RMS(Cart)=  0.00000333 RMS(Int)=  0.11718447
 Iteration 25 RMS(Cart)=  0.00000222 RMS(Int)=  0.11718376
 Iteration 26 RMS(Cart)=  0.00000148 RMS(Int)=  0.11718328
 Iteration 27 RMS(Cart)=  0.00000099 RMS(Int)=  0.11718296
 Iteration  1 RMS(Cart)=  0.03645124 RMS(Int)=  0.06206081
 Iteration  2 RMS(Cart)=  0.03651765 RMS(Int)=  0.05367059
 Iteration  3 RMS(Cart)=  0.01603664 RMS(Int)=  0.05980605
 Iteration  4 RMS(Cart)=  0.00534101 RMS(Int)=  0.06292896
 Iteration  5 RMS(Cart)=  0.00177795 RMS(Int)=  0.06406560
 Iteration  6 RMS(Cart)=  0.00059176 RMS(Int)=  0.06445386
 Iteration  7 RMS(Cart)=  0.00019695 RMS(Int)=  0.06458415
 Iteration  8 RMS(Cart)=  0.00006555 RMS(Int)=  0.06462763
 Iteration  9 RMS(Cart)=  0.00002181 RMS(Int)=  0.06464211
 Iteration 10 RMS(Cart)=  0.00000726 RMS(Int)=  0.06464694
 Iteration 11 RMS(Cart)=  0.00000242 RMS(Int)=  0.06464854
 Iteration 12 RMS(Cart)=  0.00000080 RMS(Int)=  0.06464907
 GradGradGradGradGradGradGradGradGradGradGradGradGradGradGradGradGradGrad

                          Input orientation:                          
 ---------------------------------------------------------------------
 Center     Atomic      Atomic             Coordinates (Angstroms)
 Number     Number       Type             X           Y           Z
 ---------------------------------------------------------------------
      1          8           0        1.531023    0.000219    0.087693
      2          1           0        1.929626    0.763985   -0.332414
      3          1           0        1.929018   -0.763400   -0.333256
      4          8           0       -1.743475   -0.000192   -0.097404
      5          1           0       -2.078739   -0.000612    0.798744
      6          1           0       -0.583105   -0.000066    0.011380
 ---------------------------------------------------------------------
                    Distance matrix (angstroms):
                    1          2          3          4          5
     1  O    0.000000
     2  H    0.958495   0.000000
     3  H    0.958495   1.527385   0.000000
     4  O    3.279725   3.759105   3.758366   0.000000
     5  H    3.679127   4.234515   4.233839   0.956810   0.000000
     6  H    2.115505   2.648733   2.648059   1.165458   1.690226
                    6
     6  H    0.000000
 Stoichiometry    H4O2
 Framework group  C1[X(H4O2)]
 Deg. of freedom    12
 Full point group                 C1      NOp   1
 Largest Abelian subgroup         C1      NOp   1
 Largest concise Abelian subgroup C1      NOp   1
                         Standard orientation:                         
 ---------------------------------------------------------------------
 Center     Atomic      Atomic             Coordinates (Angstroms)
 Number     Number       Type             X           Y           Z
 ---------------------------------------------------------------------
      1          8           0        1.555288    0.000169    0.099201
      2          1           0        1.957999    0.763057   -0.318575
      3          1           0        1.957165   -0.764326   -0.316436
      4          8           0       -1.717294   -0.000164   -0.117136
      5          1           0       -2.061096    0.001215    0.775771
      6          1           0       -0.558016    0.000018    0.002717
 ---------------------------------------------------------------------
 Rotational constants (GHZ):         221.6584569           5.0883597           5.0847161
 Standard basis: 6-311++G(d,p) (5D, 7F)
 There are    74 symmetry adapted cartesian basis functions of A   symmetry.
 There are    72 symmetry adapted basis functions of A   symmetry.
    72 basis functions,   108 primitive gaussians,    74 cartesian basis functions
    10 alpha electrons       10 beta electrons
       nuclear repulsion energy        33.9301554791 Hartrees.
 NAtoms=    6 NActive=    6 NUniq=    6 SFac= 1.00D+00 NAtFMM=   60 NAOKFM=F Big=F
 Integral buffers will be    131072 words long.
 Raffenetti 2 integral format.
 Two-electron integral symmetry is turned on.
 Nuclear repulsion after empirical dispersion term =       33.9294711553 Hartrees.
 One-electron integrals computed using PRISM.
 NBasis=    72 RedAO= T EigKep=  1.86D-03  NBF=    72
 NBsUse=    72 1.00D-06 EigRej= -1.00D+00 NBFU=    72
 Initial guess from the checkpoint file:  "dimer-scan-14.chk"
 B after Tr=     0.000000   -0.000000   -0.000000
         Rot=    0.999998    0.000642   -0.001896    0.000013 Ang=   0.23 deg.
 Keep R1 ints in memory in canonical form, NReq=39419504.
 Requested convergence on RMS density matrix=1.00D-08 within 128 cycles.
 Requested convergence on MAX density matrix=1.00D-06.
 Requested convergence on             energy=1.00D-06.
 No special actions if energy rises.
 SCF Done:  E(RwB97XD) =  -152.848180966     A.U. after   11 cycles
            NFock= 11  Conv=0.32D-08     -V/T= 2.0045
 DoSCS=F DFT=T ScalE2(SS,OS)=  1.000000  1.000000
 Range of M.O.s used for correlation:     1    72
 NBasis=    72 NAE=    10 NBE=    10 NFC=     0 NFV=     0
 NROrb=     72 NOA=    10 NOB=    10 NVA=    62 NVB=    62
 Symmetrizing basis deriv contribution to polar:
 IMax=3 JMax=2 DiffMx= 0.00D+00
 G2DrvN: will do     7 centers at a time, making    1 passes.
 Calling FoFCou, ICntrl=  3107 FMM=F I1Cent=   0 AccDes= 0.00D+00.
 End of G2Drv F.D. properties file   721 does not exist.
 End of G2Drv F.D. properties file   722 does not exist.
 End of G2Drv F.D. properties file   788 does not exist.
          IDoAtm=111111
          Differentiating once with respect to nuclear coordinates.
 Keep R1 ints in memory in canonical form, NReq=39298844.
          There are    21 degrees of freedom in the 1st order CPHF.  IDoFFX=6 NUNeed=     0.
     15 vectors produced by pass  0 Test12= 2.95D-15 4.76D-09 XBig12= 3.44D-02 6.50D-02.
 AX will form    15 AO Fock derivatives at one time.
     15 vectors produced by pass  1 Test12= 2.95D-15 4.76D-09 XBig12= 3.56D-03 1.70D-02.
     15 vectors produced by pass  2 Test12= 2.95D-15 4.76D-09 XBig12= 1.00D-04 3.88D-03.
     15 vectors produced by pass  3 Test12= 2.95D-15 4.76D-09 XBig12= 1.00D-06 2.92D-04.
     15 vectors produced by pass  4 Test12= 2.95D-15 4.76D-09 XBig12= 5.78D-09 1.94D-05.
     15 vectors produced by pass  5 Test12= 2.95D-15 4.76D-09 XBig12= 2.39D-11 1.26D-06.
     11 vectors produced by pass  6 Test12= 2.95D-15 4.76D-09 XBig12= 1.55D-13 1.01D-07.
      3 vectors produced by pass  7 Test12= 2.95D-15 4.76D-09 XBig12= 9.31D-16 1.03D-08.
 InvSVY:  IOpt=1 It=  1 EMax= 1.33D-15
 Solved reduced A of dimension   104 with    15 vectors.
 End of Minotr F.D. properties file   721 does not exist.
 End of Minotr F.D. properties file   722 does not exist.
 End of Minotr F.D. properties file   788 does not exist.
 Calling FoFJK, ICntrl=    100127 FMM=F ISym2X=0 I1Cent= 0 IOpClX= 0 NMat=1 NMatS=1 NMatT=0.
 ***** Axes restored to original set *****
 -------------------------------------------------------------------
 Center     Atomic                   Forces (Hartrees/Bohr)
 Number     Number              X              Y              Z
 -------------------------------------------------------------------
      1        8          -0.005041872   -0.000005566   -0.000279268
      2        1          -0.000236636    0.000139652    0.000010450
      3        1          -0.000230231   -0.000138302    0.000010491
      4        8           0.103939940    0.000012554    0.001768659
      5        1           0.004035890   -0.000000898    0.003850359
      6        1          -0.102467091   -0.000007439   -0.005360691
 -------------------------------------------------------------------
 Cartesian Forces:  Max     0.103939940 RMS     0.034473534
 FormGI is forming the generalized inverse of G from B-inverse, IUseBI=4.

 GradGradGradGradGradGradGradGradGradGradGradGradGradGradGradGradGradGrad
 Berny optimization.
 Internal  Forces:  Max     0.070273400 RMS     0.022365548
 Search for a local minimum.
 Step number   1 out of a maximum of  100 on scan point     2 out of    12
 All quantities printed in internal units (Hartrees-Bohrs-Radians)
 Mixed Optimization -- RFO/linear search
 Second derivative matrix not updated -- analytic derivatives used.
 The second derivative matrix:
                          R1        R2        R3        R4        R5
           R1           0.55954
           R2          -0.00510   0.55955
           R3           0.00001   0.00001   0.01346
           R4           0.00087   0.00087  -0.01133   0.00916
           R5           0.00004   0.00004  -0.00223   0.00144   0.56353
           R6          -0.00068  -0.00068   0.02478  -0.02038  -0.00373
           A1           0.01724   0.01729  -0.00009   0.00115  -0.00001
           A2          -0.00531  -0.00674   0.00005  -0.00051   0.00000
           A3          -0.00598  -0.00397   0.00007  -0.00063  -0.00000
           A4          -0.00012  -0.00012   0.00720  -0.00518   0.01782
           A5           0.00226   0.00232  -0.00026   0.00155  -0.00068
           A6          -0.00007   0.00007  -0.00000   0.00000  -0.00000
           D1          -0.00195  -0.00147  -0.00005   0.00021   0.00000
           D2           0.00696   0.00720  -0.00005   0.00020   0.00010
           D3          -0.00696  -0.00720   0.00005  -0.00020  -0.00009
                          R6        A1        A2        A3        A4
           R6           0.04543
           A1          -0.00045   0.06401
           A2           0.00037  -0.02364   0.01230
           A3           0.00078  -0.02214   0.00394   0.01610
           A4           0.01211  -0.00027  -0.00002  -0.00026   0.13110
           A5           0.00289   0.00979  -0.00236   0.00095  -0.00339
           A6           0.00000   0.00005  -0.00166   0.00233   0.00000
           D1          -0.00065  -0.00230  -0.00093   0.00069   0.00038
           D2          -0.00037   0.02423  -0.00961  -0.00703   0.00013
           D3           0.00037  -0.02421   0.00911   0.00773  -0.00013
                          A5        A6        D1        D2        D3
           A5           0.05758
           A6           0.00007   0.01629
           D1          -0.00476   0.00056   0.00241
           D2          -0.00151   0.00062  -0.00090   0.01046
           D3           0.00154   0.00008   0.00108  -0.00975   0.01030
 ITU=  0
     Eigenvalues ---    0.00058   0.00323   0.00986   0.01765   0.04525
     Eigenvalues ---    0.05824   0.09850   0.13229   0.55650   0.56428
     Eigenvalues ---    0.564651000.000001000.000001000.000001000.00000
 RFO step:  Lambda=-5.25276243D-02 EMin= 5.84913840D-04
 Linear search not attempted -- first point.
 Maximum step size (   0.300) exceeded in Quadratic search.
    -- Step size scaled by   0.415
 Iteration  1 RMS(Cart)=  0.04839802 RMS(Int)=  0.00439544
 Iteration  2 RMS(Cart)=  0.00283821 RMS(Int)=  0.00003059
 Iteration  3 RMS(Cart)=  0.00000057 RMS(Int)=  0.00003058
 Iteration  1 RMS(Cart)=  0.00000514 RMS(Int)=  0.00000418
 Iteration  2 RMS(Cart)=  0.00000171 RMS(Int)=  0.00000462
 Iteration  3 RMS(Cart)=  0.00000057 RMS(Int)=  0.00000493
 Variable       Old X    -DE/DX   Delta X   Delta X   Delta X     New X
                                 (Linear)    (Quad)   (Total)
    R1        1.81129   0.00001   0.00000  -0.00045  -0.00045   1.81084
    R2        1.81129   0.00001   0.00000  -0.00045  -0.00045   1.81084
    R3        6.19778  -0.03778   0.00000   0.00000   0.00000   6.19778
    R4        3.99772   0.03226   0.00000   0.21160   0.21164   4.20936
    R5        1.80811   0.00219   0.00000  -0.00028  -0.00028   1.80783
    R6        2.20240  -0.07027   0.00000  -0.21244  -0.21240   1.98999
    A1        1.84384   0.00002   0.00000  -0.00219  -0.00214   1.84169
    A2        1.98219  -0.00013   0.00000   0.00117   0.00117   1.98336
    A3        1.98123  -0.00036   0.00000   0.00171   0.00172   1.98296
    A4        1.83532  -0.00927   0.00000  -0.00112  -0.00112   1.83420
    A5        3.19899  -0.00239   0.00000  -0.00914  -0.00916   3.18983
    A6        3.14159   0.00000   0.00000  -0.00001  -0.00001   3.14158
    D1       -2.18309   0.00038   0.00000  -0.00099  -0.00103  -2.18412
    D2       -2.09580   0.00034   0.00000   0.00152   0.00146  -2.09433
    D3        2.09578  -0.00034   0.00000  -0.00152  -0.00146   2.09431
         Item               Value     Threshold  Converged?
 Maximum Force            0.051440     0.002500     NO 
 RMS     Force            0.019574     0.001667     NO 
 Maximum Displacement     0.179183     0.010000     NO 
 RMS     Displacement     0.051218     0.006667     NO 
 Predicted change in Energy=-1.963078D-02
 GradGradGradGradGradGradGradGradGradGradGradGradGradGradGradGradGradGrad

                          Input orientation:                          
 ---------------------------------------------------------------------
 Center     Atomic      Atomic             Coordinates (Angstroms)
 Number     Number       Type             X           Y           Z
 ---------------------------------------------------------------------
      1          8           0        1.547764    0.000118    0.088267
      2          1           0        1.949105    0.763178   -0.329968
      3          1           0        1.948909   -0.762585   -0.330804
      4          8           0       -1.726857   -0.000117   -0.094633
      5          1           0       -2.056649   -0.000595    0.803385
      6          1           0       -0.677925   -0.000063   -0.001505
 ---------------------------------------------------------------------
                    Distance matrix (angstroms):
                    1          2          3          4          5
     1  O    0.000000
     2  H    0.958256   0.000000
     3  H    0.958256   1.525763   0.000000
     4  O    3.279725   3.761742   3.761435   0.000000
     5  H    3.674668   4.232482   4.232199   0.956660   0.000000
     6  H    2.227498   2.755306   2.755020   1.053058   1.596474
                    6
     6  H    0.000000
 Stoichiometry    H4O2
 Framework group  C1[X(H4O2)]
 Deg. of freedom    12
 Full point group                 C1      NOp   1
 Largest Abelian subgroup         C1      NOp   1
 Largest concise Abelian subgroup C1      NOp   1
                         Standard orientation:                         
 ---------------------------------------------------------------------
 Center     Atomic      Atomic             Coordinates (Angstroms)
 Number     Number       Type             X           Y           Z
 ---------------------------------------------------------------------
      1          8           0        1.560324    0.000069    0.099207
      2          1           0        1.965864    0.762623   -0.315887
      3          1           0        1.965518   -0.763140   -0.315020
      4          8           0       -1.712327   -0.000065   -0.116097
      5          1           0       -2.050991    0.000492    0.778613
      6          1           0       -0.664367   -0.000005   -0.012591
 ---------------------------------------------------------------------
 Rotational constants (GHZ):         221.9870704           5.0814323           5.0778811
 Standard basis: 6-311++G(d,p) (5D, 7F)
 There are    74 symmetry adapted cartesian basis functions of A   symmetry.
 There are    72 symmetry adapted basis functions of A   symmetry.
    72 basis functions,   108 primitive gaussians,    74 cartesian basis functions
    10 alpha electrons       10 beta electrons
       nuclear repulsion energy        34.2232079639 Hartrees.
 NAtoms=    6 NActive=    6 NUniq=    6 SFac= 1.00D+00 NAtFMM=   60 NAOKFM=F Big=F
 Integral buffers will be    131072 words long.
 Raffenetti 2 integral format.
 Two-electron integral symmetry is turned on.
 Nuclear repulsion after empirical dispersion term =       34.2225590757 Hartrees.
 One-electron integrals computed using PRISM.
 NBasis=    72 RedAO= T EigKep=  1.63D-03  NBF=    72
 NBsUse=    72 1.00D-06 EigRej= -1.00D+00 NBFU=    72
 Initial guess from the checkpoint file:  "dimer-scan-14.chk"
 B after Tr=    -0.000000    0.000000    0.000000
         Rot=    1.000000   -0.000450   -0.000046   -0.000007 Ang=  -0.05 deg.
 ExpMin= 3.60D-02 ExpMax= 8.59D+03 ExpMxC= 1.30D+03 IAcc=3 IRadAn=         5 AccDes= 0.00D+00
 Harris functional with IExCor= 4639 and IRadAn=       5 diagonalized for initial guess.
 HarFok:  IExCor= 4639 AccDes= 0.00D+00 IRadAn=         5 IDoV= 1 UseB2=F ITyADJ=14
 ICtDFT=  3500011 ScaDFX=  1.000000  1.000000  1.000000  1.000000
 FoFCou: FMM=F IPFlag=           0 FMFlag=      100000 FMFlg1=           0
         NFxFlg=           0 DoJE=T BraDBF=F KetDBF=T FulRan=T
         wScrn=  0.000000 ICntrl=       500 IOpCl=  0 I1Cent=   200000004 NGrid=           0
         NMat0=    1 NMatS0=      1 NMatT0=    0 NMatD0=    1 NMtDS0=    0 NMtDT0=    0
 Petite list used in FoFCou.
 Keep R1 ints in memory in canonical form, NReq=39419504.
 Requested convergence on RMS density matrix=1.00D-08 within 128 cycles.
 Requested convergence on MAX density matrix=1.00D-06.
 Requested convergence on             energy=1.00D-06.
 No special actions if energy rises.
 SCF Done:  E(RwB97XD) =  -152.866687927     A.U. after   10 cycles
            NFock= 10  Conv=0.71D-08     -V/T= 2.0039
 DoSCS=F DFT=T ScalE2(SS,OS)=  1.000000  1.000000
 Range of M.O.s used for correlation:     1    72
 NBasis=    72 NAE=    10 NBE=    10 NFC=     0 NFV=     0
 NROrb=     72 NOA=    10 NOB=    10 NVA=    62 NVB=    62
 Symmetrizing basis deriv contribution to polar:
 IMax=3 JMax=2 DiffMx= 0.00D+00
 Calling FoFJK, ICntrl=      2127 FMM=F ISym2X=0 I1Cent= 0 IOpClX= 0 NMat=1 NMatS=1 NMatT=0.
 ***** Axes restored to original set *****
 -------------------------------------------------------------------
 Center     Atomic                   Forces (Hartrees/Bohr)
 Number     Number              X              Y              Z
 -------------------------------------------------------------------
      1        8          -0.004077610   -0.000001600   -0.000247847
      2        1          -0.000102318    0.000105542    0.000026703
      3        1          -0.000099955   -0.000105442    0.000026398
      4        8           0.067585512    0.000004823    0.001487367
      5        1           0.002105521   -0.000000775    0.002120197
      6        1          -0.065411150   -0.000002549   -0.003412820
 -------------------------------------------------------------------
 Cartesian Forces:  Max     0.067585512 RMS     0.022218537

 GradGradGradGradGradGradGradGradGradGradGradGradGradGradGradGradGradGrad
 Berny optimization.
 Using GEDIIS/GDIIS optimizer.
 FormGI is forming the generalized inverse of G from B-inverse, IUseBI=4.
 Internal  Forces:  Max     0.045106896 RMS     0.014338113
 Search for a local minimum.
 Step number   2 out of a maximum of  100 on scan point     2 out of    12
 All quantities printed in internal units (Hartrees-Bohrs-Radians)
 Mixed Optimization -- RFO/linear search
 Update second derivatives using D2CorX and points    1    2
 DE= -1.85D-02 DEPred=-1.96D-02 R= 9.43D-01
 TightC=F SS=  1.41D+00  RLast= 3.00D-01 DXNew= 5.0454D-01 9.0003D-01
 Trust test= 9.43D-01 RLast= 3.00D-01 DXMaxT set to 5.05D-01
 The second derivative matrix:
                          R1        R2        R3        R4        R5
           R1           0.55954
           R2          -0.00510   0.55955
           R3           0.00009   0.00009   0.02172
           R4           0.00080   0.00080  -0.02005   0.01806
           R5           0.00003   0.00003  -0.00213   0.00150   0.56344
           R6          -0.00052  -0.00052   0.04183  -0.03808  -0.00369
           A1           0.01724   0.01729   0.00011   0.00099  -0.00003
           A2          -0.00531  -0.00674  -0.00004  -0.00044   0.00002
           A3          -0.00598  -0.00397  -0.00004  -0.00056   0.00003
           A4          -0.00008  -0.00008   0.00776  -0.00629   0.01812
           A5           0.00227   0.00233   0.00002   0.00117  -0.00062
           A6          -0.00007   0.00007  -0.00000   0.00000  -0.00000
           D1          -0.00195  -0.00147  -0.00001   0.00021  -0.00002
           D2           0.00696   0.00720  -0.00013   0.00028   0.00009
           D3          -0.00696  -0.00720   0.00013  -0.00028  -0.00009
                          R6        A1        A2        A3        A4
           R6           0.08033
           A1          -0.00008   0.06401
           A2           0.00021  -0.02364   0.01229
           A3           0.00060  -0.02213   0.00394   0.01610
           A4           0.01379  -0.00017  -0.00008  -0.00036   0.13021
           A5           0.00354   0.00981  -0.00237   0.00093  -0.00354
           A6           0.00000   0.00005  -0.00166   0.00233   0.00000
           D1          -0.00060  -0.00230  -0.00093   0.00070   0.00046
           D2          -0.00054   0.02422  -0.00961  -0.00703   0.00013
           D3           0.00054  -0.02421   0.00911   0.00773  -0.00012
                          A5        A6        D1        D2        D3
           A5           0.05756
           A6           0.00007   0.01629
           D1          -0.00474   0.00056   0.00240
           D2          -0.00152   0.00062  -0.00091   0.01046
           D3           0.00154   0.00008   0.00108  -0.00975   0.01030
 ITU=  1  0
 Use linear search instead of GDIIS.
     Eigenvalues ---    0.00058   0.00324   0.00986   0.01765   0.05699
     Eigenvalues ---    0.08351   0.09850   0.13394   0.55650   0.56422
     Eigenvalues ---    0.564651000.000001000.000001000.000001000.00000
 RFO step:  Lambda=-2.03898645D-05 EMin= 5.84913840D-04
 Quartic linear search produced a step of  0.82818.
 Iteration  1 RMS(Cart)=  0.04143249 RMS(Int)=  0.00020060
 Iteration  2 RMS(Cart)=  0.00022385 RMS(Int)=  0.00009234
 Iteration  3 RMS(Cart)=  0.00000002 RMS(Int)=  0.00009234
 Iteration  1 RMS(Cart)=  0.00000849 RMS(Int)=  0.00000689
 Iteration  2 RMS(Cart)=  0.00000283 RMS(Int)=  0.00000762
 Iteration  3 RMS(Cart)=  0.00000094 RMS(Int)=  0.00000814
 Variable       Old X    -DE/DX   Delta X   Delta X   Delta X     New X
                                 (Linear)    (Quad)   (Total)
    R1        1.81084   0.00003  -0.00037   0.00022  -0.00016   1.81068
    R2        1.81084   0.00003  -0.00037   0.00022  -0.00016   1.81068
    R3        6.19778  -0.02464   0.00000   0.00000  -0.00000   6.19778
    R4        4.20936   0.02036   0.17527  -0.00151   0.17383   4.38320
    R5        1.80783   0.00126  -0.00023   0.00125   0.00102   1.80884
    R6        1.98999  -0.04511  -0.17591   0.00141  -0.17443   1.81556
    A1        1.84169   0.00003  -0.00177   0.00069  -0.00123   1.84046
    A2        1.98336  -0.00006   0.00097  -0.01808  -0.01735   1.96601
    A3        1.98296  -0.00016   0.00143  -0.01818  -0.01687   1.96608
    A4        1.83420  -0.00489  -0.00093  -0.00963  -0.01055   1.82364
    A5        3.18983  -0.00134  -0.00758  -0.00172  -0.00930   3.18053
    A6        3.14158   0.00000  -0.00000   0.00005   0.00004   3.14162
    D1       -2.18412   0.00017  -0.00086   0.03421   0.03318  -2.15094
    D2       -2.09433   0.00020   0.00121  -0.01281  -0.01158  -2.10591
    D3        2.09431  -0.00020  -0.00121   0.01305   0.01182   2.10613
         Item               Value     Threshold  Converged?
 Maximum Force            0.032810     0.002500     NO 
 RMS     Force            0.012459     0.001667     NO 
 Maximum Displacement     0.140239     0.010000     NO 
 RMS     Displacement     0.041449     0.006667     NO 
 Predicted change in Energy=-8.765095D-03
 GradGradGradGradGradGradGradGradGradGradGradGradGradGradGradGradGradGrad

                          Input orientation:                          
 ---------------------------------------------------------------------
 Center     Atomic      Atomic             Coordinates (Angstroms)
 Number     Number       Type             X           Y           Z
 ---------------------------------------------------------------------
      1          8           0        1.564670    0.000019    0.098860
      2          1           0        1.954631    0.762763   -0.330378
      3          1           0        1.954789   -0.762153   -0.331251
      4          8           0       -1.709253   -0.000094   -0.096145
      5          1           0       -2.028353   -0.000538    0.806297
      6          1           0       -0.752136   -0.000062   -0.012639
 ---------------------------------------------------------------------
                    Distance matrix (angstroms):
                    1          2          3          4          5
     1  O    0.000000
     2  H    0.958172   0.000000
     3  H    0.958173   1.524917   0.000000
     4  O    3.279725   3.749782   3.749828   0.000000
     5  H    3.662005   4.211749   4.211828   0.957198   0.000000
     6  H    2.319487   2.830097   2.830148   0.960752   1.516373
                    6
     6  H    0.000000
 Stoichiometry    H4O2
 Framework group  C1[X(H4O2)]
 Deg. of freedom    12
 Full point group                 C1      NOp   1
 Largest Abelian subgroup         C1      NOp   1
 Largest concise Abelian subgroup C1      NOp   1
                         Standard orientation:                         
 ---------------------------------------------------------------------
 Center     Atomic      Atomic             Coordinates (Angstroms)
 Number     Number       Type             X           Y           Z
 ---------------------------------------------------------------------
      1          8           0        1.565404    0.000044    0.101759
      2          1           0        1.958312    0.762327   -0.325609
      3          1           0        1.958370   -0.762590   -0.324929
      4          8           0       -1.707125   -0.000064   -0.115377
      5          1           0       -2.032320    0.000430    0.784887
      6          1           0       -0.750595   -0.000007   -0.025402
 ---------------------------------------------------------------------
 Rotational constants (GHZ):         219.4689151           5.0818655           5.0797798
 Standard basis: 6-311++G(d,p) (5D, 7F)
 There are    74 symmetry adapted cartesian basis functions of A   symmetry.
 There are    72 symmetry adapted basis functions of A   symmetry.
    72 basis functions,   108 primitive gaussians,    74 cartesian basis functions
    10 alpha electrons       10 beta electrons
       nuclear repulsion energy        34.5521645262 Hartrees.
 NAtoms=    6 NActive=    6 NUniq=    6 SFac= 1.00D+00 NAtFMM=   60 NAOKFM=F Big=F
 Integral buffers will be    131072 words long.
 Raffenetti 2 integral format.
 Two-electron integral symmetry is turned on.
 Nuclear repulsion after empirical dispersion term =       34.5515312319 Hartrees.
 One-electron integrals computed using PRISM.
 NBasis=    72 RedAO= T EigKep=  1.39D-03  NBF=    72
 NBsUse=    72 1.00D-06 EigRej= -1.00D+00 NBFU=    72
 Initial guess from the checkpoint file:  "dimer-scan-14.chk"
 B after Tr=    -0.000000    0.000000   -0.000000
         Rot=    1.000000   -0.000069   -0.000359   -0.000005 Ang=  -0.04 deg.
 ExpMin= 3.60D-02 ExpMax= 8.59D+03 ExpMxC= 1.30D+03 IAcc=3 IRadAn=         5 AccDes= 0.00D+00
 Harris functional with IExCor= 4639 and IRadAn=       5 diagonalized for initial guess.
 HarFok:  IExCor= 4639 AccDes= 0.00D+00 IRadAn=         5 IDoV= 1 UseB2=F ITyADJ=14
 ICtDFT=  3500011 ScaDFX=  1.000000  1.000000  1.000000  1.000000
 FoFCou: FMM=F IPFlag=           0 FMFlag=      100000 FMFlg1=           0
         NFxFlg=           0 DoJE=T BraDBF=F KetDBF=T FulRan=T
         wScrn=  0.000000 ICntrl=       500 IOpCl=  0 I1Cent=   200000004 NGrid=           0
         NMat0=    1 NMatS0=      1 NMatT0=    0 NMatD0=    1 NMtDS0=    0 NMtDT0=    0
 Petite list used in FoFCou.
 Keep R1 ints in memory in canonical form, NReq=39419504.
 Requested convergence on RMS density matrix=1.00D-08 within 128 cycles.
 Requested convergence on MAX density matrix=1.00D-06.
 Requested convergence on             energy=1.00D-06.
 No special actions if energy rises.
 SCF Done:  E(RwB97XD) =  -152.872761295     A.U. after   10 cycles
            NFock= 10  Conv=0.61D-08     -V/T= 2.0030
 DoSCS=F DFT=T ScalE2(SS,OS)=  1.000000  1.000000
 Range of M.O.s used for correlation:     1    72
 NBasis=    72 NAE=    10 NBE=    10 NFC=     0 NFV=     0
 NROrb=     72 NOA=    10 NOB=    10 NVA=    62 NVB=    62
 Symmetrizing basis deriv contribution to polar:
 IMax=3 JMax=2 DiffMx= 0.00D+00
 Calling FoFJK, ICntrl=      2127 FMM=F ISym2X=0 I1Cent= 0 IOpClX= 0 NMat=1 NMatS=1 NMatT=0.
 ***** Axes restored to original set *****
 -------------------------------------------------------------------
 Center     Atomic                   Forces (Hartrees/Bohr)
 Number     Number              X              Y              Z
 -------------------------------------------------------------------
      1        8          -0.003618584    0.000000236   -0.000299877
      2        1           0.000023519    0.000026661    0.000054316
      3        1           0.000023029   -0.000026738    0.000054322
      4        8           0.000176988    0.000000162    0.000498462
      5        1          -0.000484277   -0.000000126   -0.000042766
      6        1           0.003879325   -0.000000194   -0.000264457
 -------------------------------------------------------------------
 Cartesian Forces:  Max     0.003879325 RMS     0.001265520

 GradGradGradGradGradGradGradGradGradGradGradGradGradGradGradGradGradGrad
 Berny optimization.
 Using GEDIIS/GDIIS optimizer.
 FormGI is forming the generalized inverse of G from B-inverse, IUseBI=4.
 Internal  Forces:  Max     0.002474707 RMS     0.000815195
 Search for a local minimum.
 Step number   3 out of a maximum of  100 on scan point     2 out of    12
 All quantities printed in internal units (Hartrees-Bohrs-Radians)
 Mixed Optimization -- En-DIIS/RFO-DIIS
 Update second derivatives using D2CorX and points    1    2    3
 DE= -6.07D-03 DEPred=-8.77D-03 R= 6.93D-01
 TightC=F SS=  1.41D+00  RLast= 2.51D-01 DXNew= 8.4853D-01 7.5183D-01
 Trust test= 6.93D-01 RLast= 2.51D-01 DXMaxT set to 7.52D-01
 The second derivative matrix:
                          R1        R2        R3        R4        R5
           R1           0.55954
           R2          -0.00510   0.55955
           R3           0.00018   0.00018   0.04553
           R4           0.00072   0.00072  -0.04451   0.04302
           R5           0.00002   0.00002  -0.00177   0.00130   0.56329
           R6          -0.00036  -0.00035   0.09008  -0.08749  -0.00311
           A1           0.01724   0.01729   0.00042   0.00070  -0.00005
           A2          -0.00531  -0.00674  -0.00020  -0.00030   0.00004
           A3          -0.00597  -0.00397  -0.00027  -0.00037   0.00007
           A4          -0.00005  -0.00005   0.00929  -0.00833   0.01860
           A5           0.00228   0.00234   0.00043   0.00065  -0.00052
           A6          -0.00007   0.00007  -0.00000   0.00000  -0.00000
           D1          -0.00195  -0.00147   0.00014   0.00010  -0.00006
           D2           0.00696   0.00719  -0.00015   0.00032   0.00008
           D3          -0.00696  -0.00720   0.00015  -0.00032  -0.00008
                          R6        A1        A2        A3        A4
           R6           0.17795
           A1           0.00051   0.06401
           A2          -0.00009  -0.02363   0.01229
           A3           0.00017  -0.02213   0.00393   0.01608
           A4           0.01730  -0.00007  -0.00016  -0.00051   0.12898
           A5           0.00447   0.00984  -0.00239   0.00090  -0.00379
           A6           0.00000   0.00005  -0.00166   0.00233   0.00000
           D1          -0.00035  -0.00231  -0.00092   0.00071   0.00058
           D2          -0.00059   0.02422  -0.00961  -0.00702   0.00017
           D3           0.00059  -0.02421   0.00910   0.00773  -0.00017
                          A5        A6        D1        D2        D3
           A5           0.05751
           A6           0.00007   0.01629
           D1          -0.00472   0.00056   0.00239
           D2          -0.00151   0.00062  -0.00091   0.01046
           D3           0.00153   0.00008   0.00108  -0.00975   0.01029
 ITU=  1  1  0
 Use linear search instead of GDIIS.
     Eigenvalues ---    0.00058   0.00323   0.00985   0.01765   0.05717
     Eigenvalues ---    0.09848   0.12405   0.20258   0.55650   0.56410
     Eigenvalues ---    0.564651000.000001000.000001000.000001000.00000
 RFO step:  Lambda=-3.64663269D-06 EMin= 5.84913708D-04
 Quartic linear search produced a step of -0.04194.
 Iteration  1 RMS(Cart)=  0.00310021 RMS(Int)=  0.00000725
 Iteration  2 RMS(Cart)=  0.00000465 RMS(Int)=  0.00000322
 Iteration  3 RMS(Cart)=  0.00000000 RMS(Int)=  0.00000322
 Iteration  1 RMS(Cart)=  0.00000041 RMS(Int)=  0.00000033
 Variable       Old X    -DE/DX   Delta X   Delta X   Delta X     New X
                                 (Linear)    (Quad)   (Total)
    R1        1.81068   0.00001   0.00001   0.00003   0.00004   1.81072
    R2        1.81068   0.00001   0.00001   0.00001   0.00002   1.81070
    R3        6.19778  -0.00110   0.00000   0.00000   0.00000   6.19778
    R4        4.38320  -0.00247  -0.00729   0.00019  -0.00710   4.37609
    R5        1.80884   0.00012  -0.00004   0.00016   0.00011   1.80896
    R6        1.81556   0.00137   0.00732  -0.00033   0.00698   1.82254
    A1        1.84046   0.00003   0.00005   0.00012   0.00018   1.84065
    A2        1.96601   0.00001   0.00073  -0.00574  -0.00500   1.96101
    A3        1.96608   0.00005   0.00071  -0.00040   0.00032   1.96640
    A4        1.82364   0.00085   0.00044   0.00442   0.00486   1.82850
    A5        3.18053  -0.00007   0.00039  -0.00292  -0.00253   3.17800
    A6        3.14162  -0.00000  -0.00000  -0.00063  -0.00063   3.14099
    D1       -2.15094  -0.00006  -0.00139   0.00727   0.00589  -2.14506
    D2       -2.10591   0.00004   0.00049  -0.00379  -0.00331  -2.10921
    D3        2.10613  -0.00004  -0.00050  -0.00028  -0.00077   2.10536
         Item               Value     Threshold  Converged?
 Maximum Force            0.001924     0.002500     YES
 RMS     Force            0.000763     0.001667     YES
 Maximum Displacement     0.007967     0.010000     YES
 RMS     Displacement     0.003101     0.006667     YES
 Predicted change in Energy=-1.844150D-05
 Optimization completed.
    -- Stationary point found.
                           ----------------------------
                           !   Optimized Parameters   !
                           ! (Angstroms and Degrees)  !
 --------------------------                            --------------------------
 ! Name  Definition              Value          Derivative Info.                !
 --------------------------------------------------------------------------------
 ! R1    R(1,2)                  0.9582         -DE/DX =    0.0                 !
 ! R2    R(1,3)                  0.9582         -DE/DX =    0.0                 !
 ! R3    R(1,4)                  3.2797         -DE/DX =   -0.0011              !
 ! R4    R(1,6)                  2.3195         -DE/DX =   -0.0025              !
 ! R5    R(4,5)                  0.9572         -DE/DX =    0.0001              !
 ! R6    R(4,6)                  0.9608         -DE/DX =    0.0014              !
 ! A1    A(2,1,3)              105.4509         -DE/DX =    0.0                 !
 ! A2    A(2,1,6)              112.6442         -DE/DX =    0.0                 !
 ! A3    A(3,1,6)              112.6482         -DE/DX =    0.0                 !
 ! A4    A(5,4,6)              104.4871         -DE/DX =    0.0009              !
 ! A5    L(1,6,4,5,-1)         182.231          -DE/DX =   -0.0001              !
 ! A6    L(1,6,4,5,-2)         180.0017         -DE/DX =    0.0                 !
 ! D1    D(2,1,3,6)           -123.2401         -DE/DX =   -0.0001              !
 ! D2    D(2,1,4,5)           -120.6597         -DE/DX =    0.0                 !
 ! D3    D(3,1,4,5)            120.6725         -DE/DX =    0.0                 !
 --------------------------------------------------------------------------------
 Iteration  1 RMS(Cart)=  0.03671534 RMS(Int)=  0.16256872
 Iteration  2 RMS(Cart)=  0.02456241 RMS(Int)=  0.14362469
 Iteration  3 RMS(Cart)=  0.01639582 RMS(Int)=  0.13281210
 Iteration  4 RMS(Cart)=  0.01093746 RMS(Int)=  0.12663621
 Iteration  5 RMS(Cart)=  0.00729523 RMS(Int)=  0.12305296
 Iteration  6 RMS(Cart)=  0.00486527 RMS(Int)=  0.12092433
 Iteration  7 RMS(Cart)=  0.00324447 RMS(Int)=  0.11962752
 Iteration  8 RMS(Cart)=  0.00216352 RMS(Int)=  0.11881923
 Iteration  9 RMS(Cart)=  0.00144266 RMS(Int)=  0.11830590
 Iteration 10 RMS(Cart)=  0.00096196 RMS(Int)=  0.11797517
 Iteration 11 RMS(Cart)=  0.00064143 RMS(Int)=  0.11775983
 Iteration 12 RMS(Cart)=  0.00042769 RMS(Int)=  0.11761856
 Iteration 13 RMS(Cart)=  0.00028518 RMS(Int)=  0.11752540
 Iteration 14 RMS(Cart)=  0.00019015 RMS(Int)=  0.11746374
 Iteration 15 RMS(Cart)=  0.00012679 RMS(Int)=  0.11742284
 Iteration 16 RMS(Cart)=  0.00008454 RMS(Int)=  0.11739565
 Iteration 17 RMS(Cart)=  0.00005637 RMS(Int)=  0.11737757
 Iteration 18 RMS(Cart)=  0.00003758 RMS(Int)=  0.11736553
 Iteration 19 RMS(Cart)=  0.00002506 RMS(Int)=  0.11735751
 Iteration 20 RMS(Cart)=  0.00001671 RMS(Int)=  0.11735217
 Iteration 21 RMS(Cart)=  0.00001114 RMS(Int)=  0.11734860
 Iteration 22 RMS(Cart)=  0.00000743 RMS(Int)=  0.11734623
 Iteration 23 RMS(Cart)=  0.00000495 RMS(Int)=  0.11734465
 Iteration 24 RMS(Cart)=  0.00000330 RMS(Int)=  0.11734359
 Iteration 25 RMS(Cart)=  0.00000220 RMS(Int)=  0.11734289
 Iteration 26 RMS(Cart)=  0.00000147 RMS(Int)=  0.11734242
 Iteration 27 RMS(Cart)=  0.00000098 RMS(Int)=  0.11734211
 Iteration  1 RMS(Cart)=  0.03685667 RMS(Int)=  0.06234666
 Iteration  2 RMS(Cart)=  0.03690173 RMS(Int)=  0.05382809
 Iteration  3 RMS(Cart)=  0.01643321 RMS(Int)=  0.05999853
 Iteration  4 RMS(Cart)=  0.00547926 RMS(Int)=  0.06316746
 Iteration  5 RMS(Cart)=  0.00182625 RMS(Int)=  0.06432375
 Iteration  6 RMS(Cart)=  0.00060862 RMS(Int)=  0.06471937
 Iteration  7 RMS(Cart)=  0.00020282 RMS(Int)=  0.06485232
 Iteration  8 RMS(Cart)=  0.00006759 RMS(Int)=  0.06489675
 Iteration  9 RMS(Cart)=  0.00002252 RMS(Int)=  0.06491157
 Iteration 10 RMS(Cart)=  0.00000751 RMS(Int)=  0.06491651
 Iteration 11 RMS(Cart)=  0.00000250 RMS(Int)=  0.06491816
 Iteration 12 RMS(Cart)=  0.00000083 RMS(Int)=  0.06491870
 GradGradGradGradGradGradGradGradGradGradGradGradGradGradGradGradGradGrad

                          Input orientation:                          
 ---------------------------------------------------------------------
 Center     Atomic      Atomic             Coordinates (Angstroms)
 Number     Number       Type             X           Y           Z
 ---------------------------------------------------------------------
      1          8           0        1.730518   -0.000785    0.081892
      2          1           0        2.110706    0.762510   -0.355115
      3          1           0        2.114527   -0.762128   -0.355160
      4          8           0       -1.946024    0.001193   -0.071116
      5          1           0       -2.241793   -0.001159    0.839328
      6          1           0       -0.783586    0.000303   -0.005087
 ---------------------------------------------------------------------
                    Distance matrix (angstroms):
                    1          2          3          4          5
     1  O    0.000000
     2  H    0.958195   0.000000
     3  H    0.958186   1.524643   0.000000
     4  O    3.679725   4.137308   4.141426   0.000000
     5  H    4.043880   4.577569   4.580764   0.957284   0.000000
     6  H    2.515608   3.013372   3.017103   1.164312   1.685054
                    6
     6  H    0.000000
 Stoichiometry    H4O2
 Framework group  C1[X(H4O2)]
 Deg. of freedom    12
 Full point group                 C1      NOp   1
 Largest Abelian subgroup         C1      NOp   1
 Largest concise Abelian subgroup C1      NOp   1
                         Standard orientation:                         
 ---------------------------------------------------------------------
 Center     Atomic      Atomic             Coordinates (Angstroms)
 Number     Number       Type             X           Y           Z
 ---------------------------------------------------------------------
      1          8           0        1.755291   -0.002284    0.100678
      2          1           0        2.142395    0.770047   -0.313801
      3          1           0        2.146870   -0.754254   -0.345782
      4          8           0       -1.918184    0.002615   -0.113637
      5          1           0       -2.229112   -0.018872    0.791490
      6          1           0       -0.757011    0.000431   -0.028236
 ---------------------------------------------------------------------
 Rotational constants (GHZ):         218.6393965           4.0702764           4.0692336
 Standard basis: 6-311++G(d,p) (5D, 7F)
 There are    74 symmetry adapted cartesian basis functions of A   symmetry.
 There are    72 symmetry adapted basis functions of A   symmetry.
    72 basis functions,   108 primitive gaussians,    74 cartesian basis functions
    10 alpha electrons       10 beta electrons
       nuclear repulsion energy        32.1167732680 Hartrees.
 NAtoms=    6 NActive=    6 NUniq=    6 SFac= 1.00D+00 NAtFMM=   60 NAOKFM=F Big=F
 Integral buffers will be    131072 words long.
 Raffenetti 2 integral format.
 Two-electron integral symmetry is turned on.
 Nuclear repulsion after empirical dispersion term =       32.1162465213 Hartrees.
 One-electron integrals computed using PRISM.
 NBasis=    72 RedAO= T EigKep=  2.26D-03  NBF=    72
 NBsUse=    72 1.00D-06 EigRej= -1.00D+00 NBFU=    72
 Initial guess from the checkpoint file:  "dimer-scan-14.chk"
 B after Tr=    -0.000000    0.000000    0.000000
         Rot=    0.999935   -0.011358   -0.001118   -0.000064 Ang=  -1.31 deg.
 ExpMin= 3.60D-02 ExpMax= 8.59D+03 ExpMxC= 1.30D+03 IAcc=3 IRadAn=         5 AccDes= 0.00D+00
 Harris functional with IExCor= 4639 and IRadAn=       5 diagonalized for initial guess.
 HarFok:  IExCor= 4639 AccDes= 0.00D+00 IRadAn=         5 IDoV= 1 UseB2=F ITyADJ=14
 ICtDFT=  3500011 ScaDFX=  1.000000  1.000000  1.000000  1.000000
[...]
 The second derivative matrix:
                          R1        R2        R3        R4        R5
           R1           0.56039
           R2          -0.00681   0.56077
           R3           0.00076   0.00070   0.01214
           R4          -0.00074  -0.00068  -0.01207   0.01196
           R5           0.00116   0.00116  -0.00312   0.00307   0.55853
           R6           0.00370   0.00312   0.06962  -0.06906  -0.01917
           A1           0.01611   0.01633   0.00265  -0.00260   0.00376
           A2          -0.00810  -0.00829  -0.00137   0.00134  -0.00172
           A3          -0.00779  -0.00781  -0.00173   0.00170  -0.00176
           A4          -0.00680  -0.00597   0.00293  -0.00293   0.03862
           A5          -0.00088  -0.00078  -0.01662   0.01647   0.00418
           A6          -0.00004  -0.00002  -0.00003   0.00003   0.00031
           D1          -0.00076  -0.00082   0.00281  -0.00279  -0.00090
           D2           0.00066   0.00068   0.00218  -0.00216  -0.00063
           D3          -0.00050  -0.00051  -0.00248   0.00246   0.00047
                          R6        A1        A2        A3        A4
           R6           0.40075
           A1           0.01315   0.05914
           A2          -0.00681  -0.02975   0.01514
           A3          -0.00898  -0.02859   0.01420   0.01403
           A4           0.02801  -0.01932   0.00892   0.00992   0.13479
           A5          -0.09528  -0.00311   0.00162   0.00211  -0.00419
           A6          -0.00016  -0.00005  -0.00013   0.00020  -0.00078
           D1           0.01647  -0.00281   0.00137   0.00127   0.00216
           D2           0.01232   0.00233  -0.00117  -0.00120   0.00054
           D3          -0.01410  -0.00190   0.00095   0.00101  -0.00042
                          A5        A6        D1        D2        D3
           A5           0.02273
           A6           0.00004   0.00077
           D1          -0.00391  -0.00004   0.00096
           D2          -0.00294   0.00001   0.00036   0.00049
           D3           0.00336  -0.00004  -0.00043  -0.00048   0.00060
 ITU=  0 -1  1 -1  1  0  0  0  1  0  1  0
     Eigenvalues ---    0.00001   0.00005   0.00013   0.00028   0.00088
     Eigenvalues ---    0.07442   0.13956   0.43540   0.55595   0.56433
     Eigenvalues ---    0.567401000.000001000.000001000.000001000.00000
 Eigenvalue     1 is   7.71D-06 Eigenvector:
                          R4        A5        D2        D1        D3
   1                    0.78247  -0.56229   0.21165  -0.15024  -0.04051
                          A3        A6        A2        A4        A1
   1                    0.03697  -0.03266  -0.01134  -0.00127  -0.00022
 Eigenvalue     2 is   4.77D-05 Eigenvector:
                          D2        D3        D1        R4        A5
   1                    0.77414   0.58815  -0.15573  -0.13974   0.09863
                          A3        A1        R6        A4        A2
   1                    0.03474  -0.00619   0.00383  -0.00308  -0.00237
 En-DIIS/RFO-DIIS/Sim-DIIS IScMMF=       -3 using points:    12   11   10    9    8    7    6
 RFO step:  Lambda=-1.19575122D-07.
 DIIS inversion failure, remove point   7.
 DIIS inversion failure, remove point   6.
 DIIS inversion failure, remove point   5.
 RFO-DIIS uses    4 points instead of    7
 DidBck=F Rises=F RFO-DIIS coefs:    3.00000   -0.88278   -1.33148    0.21425    0.00000
                  RFO-DIIS coefs:    0.00000    0.00000
 Maximum step size (   0.059) exceeded in Quadratic search.
    -- Step size scaled by   0.796
 Iteration  1 RMS(Cart)=  0.02171380 RMS(Int)=  0.00044762
 Iteration  2 RMS(Cart)=  0.00037340 RMS(Int)=  0.00014838
 Iteration  3 RMS(Cart)=  0.00000010 RMS(Int)=  0.00014838
 Iteration  1 RMS(Cart)=  0.00006647 RMS(Int)=  0.00002697
 Iteration  2 RMS(Cart)=  0.00001517 RMS(Int)=  0.00002925
 Iteration  3 RMS(Cart)=  0.00000346 RMS(Int)=  0.00003034
 Iteration  4 RMS(Cart)=  0.00000079 RMS(Int)=  0.00003062
 Variable       Old X    -DE/DX   Delta X   Delta X   Delta X     New X
                                 (Linear)    (Quad)   (Total)
    R1        1.80968  -0.00000   0.00000   0.00000   0.00000   1.80968
    R2        1.80968  -0.00000   0.00000  -0.00000  -0.00000   1.80968
    R3       13.75669  -0.00010  -0.00000   0.00000  -0.00000  13.75669
    R4       12.66536  -0.00002   0.03734   0.01039   0.04801  12.71337
    R5        1.80981   0.00000   0.00001   0.00001   0.00002   1.80983
    R6        1.80987  -0.00003   0.00007  -0.00008   0.00017   1.81004
    A1        1.83582  -0.00000  -0.00006  -0.00004  -0.00027   1.83555
    A2        2.21705   0.00000   0.00062  -0.00157  -0.00112   2.21593
    A3        2.21624   0.00000   0.00227   0.00254   0.00466   2.22090
    A4        1.83320   0.00002   0.00019  -0.00011   0.00007   1.83328
    A5        2.16219  -0.00004  -0.02707  -0.00743  -0.03411   2.12808
    A6        3.14007  -0.00000  -0.00016  -0.00515  -0.00531   3.13476
    D1       -2.97106  -0.00000  -0.01522  -0.00534  -0.02073  -2.99178
    D2       -1.61433   0.00000   0.02047   0.01190   0.03225  -1.58208
    D3        1.56790  -0.00000  -0.00164   0.00413   0.00261   1.57051
         Item               Value     Threshold  Converged?
 Maximum Force            0.000023     0.002500     YES
 RMS     Force            0.000008     0.001667     YES
 Maximum Displacement     0.049397     0.010000     NO 
 RMS     Displacement     0.021627     0.006667     NO 
 Predicted change in Energy=-1.872499D-07
 Optimization completed on the basis of negligible forces.
    -- Stationary point found.
                           ----------------------------
                           !   Optimized Parameters   !
                           ! (Angstroms and Degrees)  !
 --------------------------                            --------------------------
 ! Name  Definition              Value          Derivative Info.                !
 --------------------------------------------------------------------------------
 ! R1    R(1,2)                  0.9576         -DE/DX =    0.0                 !
 ! R2    R(1,3)                  0.9576         -DE/DX =    0.0                 !
 ! R3    R(1,4)                  7.2797         -DE/DX =   -0.0001              !
 ! R4    R(1,6)                  6.7022         -DE/DX =    0.0                 !
 ! R5    R(4,5)                  0.9577         -DE/DX =    0.0                 !
 ! R6    R(4,6)                  0.9577         -DE/DX =    0.0                 !
 ! A1    A(2,1,3)              105.1845         -DE/DX =    0.0                 !
 ! A2    A(2,1,6)              127.0276         -DE/DX =    0.0                 !
 ! A3    A(3,1,6)              126.981          -DE/DX =    0.0                 !
 ! A4    A(5,4,6)              105.0347         -DE/DX =    0.0                 !
 ! A5    L(1,6,4,5,-1)         123.8843         -DE/DX =    0.0                 !
 ! A6    L(1,6,4,5,-2)         179.9126         -DE/DX =    0.0                 !
 ! D1    D(2,1,3,6)           -170.2291         -DE/DX =    0.0                 !
 ! D2    D(2,1,4,5)            -92.4944         -DE/DX =    0.0                 !
 ! D3    D(3,1,4,5)             89.834          -DE/DX =    0.0                 !
 --------------------------------------------------------------------------------
 Summary of Optimized Potential Surface Scan (add -152.0 to energies):
                           1         2         3         4         5
     Eigenvalues --    -0.87474  -0.87276  -0.87030  -0.86856  -0.86746
           R1           0.95849   0.95817   0.95790   0.95776   0.95770
           R2           0.95849   0.95817   0.95790   0.95776   0.95770
           R3           2.87972   3.27972   3.67972   4.07973   4.47973
           R4           1.91619   2.31949   2.71918   3.12655   3.54165
           R5           0.95674   0.95720   0.95739   0.95747   0.95753
           R6           0.96624   0.96075   0.96191   0.96020   0.95925
           A1         105.75291 105.45085 105.38566 105.26247 105.27706
           A2         113.55473 112.64423 116.41679 119.98797 122.84668
           A3         113.55192 112.64822 116.40947 120.00448 122.61091
           A4         105.18709 104.48714 104.70408 104.76790 104.79941
           A5         185.25521 182.23099 176.45081 172.07447 166.41263
           A6         180.00178 180.00166 180.03128 179.95633 179.90071
           D1        -125.16333-123.24005-130.68179-139.09834-147.37791
           D2        -120.21426-120.65974-117.10621-112.31941-106.19935
           D3         120.21838 120.67253 116.79390 112.50153 108.46287
                           6         7         8         9        10
     Eigenvalues --    -0.86674  -0.86625  -0.86592  -0.86568  -0.86551
           R1           0.95769   0.95768   0.95767   0.95766   0.95765
           R2           0.95769   0.95768   0.95767   0.95767   0.95766
           R3           4.87973   5.27973   5.67973   6.07973   6.47973
           R4           3.95801   4.38828   4.81979   5.29203   5.82988
           R5           0.95758   0.95762   0.95764   0.95768   0.95773
           R6           0.95875   0.95833   0.95814   0.95813   0.95783
           A1         105.22383 105.24178 105.20490 105.18419 105.18251
           A2         124.12802 125.03527 125.64850 124.66640 126.56244
           A3         123.84519 125.20553 125.37570 127.90709 127.15142
           A4         104.84592 104.88299 104.92983 104.94876 104.97355
           A5         162.21344 156.27647 151.42388 142.44982 129.35584
           A6         180.00777 180.21095 180.25184 179.27881 179.73636
           D1        -151.95440-156.99311-159.01622-163.39768-168.53082
           D2        -103.25039-101.23222 -99.19185 -99.60612 -92.35649
           D3         105.43361 100.33506  99.37921  91.84202  91.55024
                          11        12
     Eigenvalues --    -0.86537  -0.86527
           R1           0.95765   0.95764
           R2           0.95765   0.95764
           R3           6.87973   7.27973
           R4           6.33338   6.70222
           R5           0.95774   0.95771
           R6           0.95777   0.95774
           A1         105.18607 105.18455
           A2         126.96407 127.02759
           A3         127.17625 126.98095
           A4         105.01371 105.03467
           A5         121.29484 123.88430
           A6         179.64695 179.91265
           D1        -171.05502-170.22910
           D2         -90.33938 -92.49439
           D3          90.09580  89.83400
 GradGradGradGradGradGradGradGradGradGradGradGradGradGradGradGradGradGrad

                          Input orientation:                          
 ---------------------------------------------------------------------
 Center     Atomic      Atomic             Coordinates (Angstroms)
 Number     Number       Type             X           Y           Z
 ---------------------------------------------------------------------
      1          8           0        3.400259    0.000464   -0.297332
      2          1           0        3.979157    0.759333   -0.375238
      3          1           0        3.975946   -0.761988   -0.363158
      4          8           0       -3.845035    0.001574    0.409851
      5          1           0       -3.224522   -0.010678    1.139247
      6          1           0       -3.301458    0.011230   -0.378628
 ---------------------------------------------------------------------
                    Distance matrix (angstroms):
                    1          2          3          4          5
     1  O    0.000000
     2  H    0.957640   0.000000
     3  H    0.957643   1.521372   0.000000
     4  O    7.279725   7.899908   7.896095   0.000000
     5  H    6.778761   7.401322   7.393809   0.957709   0.000000
     6  H    6.702219   7.318949   7.318381   0.957742   1.519982
                    6
     6  H    0.000000
 Stoichiometry    H4O2
 Framework group  C1[X(H4O2)]
 Deg. of freedom    12
 Full point group                 C1      NOp   1
 Largest Abelian subgroup         C1      NOp   1
 Largest concise Abelian subgroup C1      NOp   1
                         Standard orientation:                         
 ---------------------------------------------------------------------
 Center     Atomic      Atomic             Coordinates (Angstroms)
 Number     Number       Type             X           Y           Z
 ---------------------------------------------------------------------
      1          8           0        3.523490    0.002170   -0.002797
      2          1           0        4.107124   -0.566609   -0.505725
      3          1           0        4.102984    0.553407    0.523896
      4          8           0       -3.756228   -0.004402    0.004337
      5          1           0       -3.210552    0.541521   -0.562595
      6          1           0       -3.137653   -0.510463    0.532101
 ---------------------------------------------------------------------
 Rotational constants (GHZ):         216.9280534           1.0538074           1.0536940

 **********************************************************************

            Population analysis using the SCF Density.

 **********************************************************************

 Orbital symmetries:
       Occupied  (A) (A) (A) (A) (A) (A) (A) (A) (A) (A)
       Virtual   (A) (A) (A) (A) (A) (A) (A) (A) (A) (A) (A) (A)
                 (A) (A) (A) (A) (A) (A) (A) (A) (A) (A) (A) (A)
                 (A) (A) (A) (A) (A) (A) (A) (A) (A) (A) (A) (A)
                 (A) (A) (A) (A) (A) (A) (A) (A) (A) (A) (A) (A)
                 (A) (A) (A) (A) (A) (A) (A) (A) (A) (A) (A) (A)
                 (A) (A)
 The electronic state is 1-A.
 Alpha  occ. eigenvalues --  -19.25745 -19.24850  -1.12619  -1.11724  -0.63361
 Alpha  occ. eigenvalues --   -0.62433  -0.48574  -0.47688  -0.41119  -0.40225
 Alpha virt. eigenvalues --    0.03491   0.04742   0.07199   0.07996   0.20040
 Alpha virt. eigenvalues --    0.21194   0.22816   0.22873   0.23091   0.23711
 Alpha virt. eigenvalues --    0.23800   0.24437   0.29158   0.29808   0.30059
 Alpha virt. eigenvalues --    0.30793   0.57707   0.58578   0.62489   0.63566
 Alpha virt. eigenvalues --    1.03786   1.04500   1.07438   1.08318   1.08422
 Alpha virt. eigenvalues --    1.09356   1.31178   1.32002   1.33244   1.34186
 Alpha virt. eigenvalues --    1.43868   1.44858   1.54330   1.55146   1.74568
 Alpha virt. eigenvalues --    1.75568   2.07587   2.08413   2.21472   2.22474
 Alpha virt. eigenvalues --    2.48586   2.49605   2.65397   2.66360   3.17803
 Alpha virt. eigenvalues --    3.18772   3.22840   3.23678   3.39606   3.40523
 Alpha virt. eigenvalues --    3.76341   3.77060   3.98256   3.99235   5.03462
 Alpha virt. eigenvalues --    5.04342   5.41344   5.42365   5.73541   5.74308
 Alpha virt. eigenvalues --   49.99749  50.00671
          Condensed to atoms (all electrons):
               1          2          3          4          5          6
     1  O    7.866843   0.325715   0.325701   0.000000  -0.000000  -0.000001
     2  H    0.325715   0.441120  -0.025968   0.000000  -0.000000  -0.000000
     3  H    0.325701  -0.025968   0.441144   0.000000  -0.000000  -0.000000
     4  O    0.000000   0.000000   0.000000   7.867596   0.325017   0.325188
     5  H   -0.000000  -0.000000  -0.000000   0.325017   0.441947  -0.025774
     6  H   -0.000001  -0.000000  -0.000000   0.325188  -0.025774   0.441595
 Mulliken charges:
               1
     1  O   -0.518258
     2  H    0.259133
     3  H    0.259123
     4  O   -0.517802
     5  H    0.258812
     6  H    0.258992
 Sum of Mulliken charges =  -0.00000
 Mulliken charges with hydrogens summed into heavy atoms:
               1
     1  O   -0.000002
     4  O    0.000002
 APT charges:
               1
     1  O   -1.636266
     2  H    0.819684
     3  H    0.816577
     4  O   -0.056182
     5  H    0.055121
     6  H    0.001066
 Sum of APT charges =  -0.00000
 APT charges with hydrogens summed into heavy atoms:
               1
     1  O   -0.000005
     4  O    0.000005
 Electronic spatial extent (au):  <R**2>=            985.8288
 Charge=              0.0000 electrons
 Dipole moment (field-independent basis, Debye):
    X=              4.3799    Y=              0.0416    Z=             -0.0287  Tot=              4.3802
 Quadrupole moment (field-independent basis, Debye-Ang):
   XX=            -12.8831   YY=            -11.9751   ZZ=            -12.1238
   XY=             -0.4851   XZ=              0.5220   YZ=              0.0006
 Traceless Quadrupole moment (field-independent basis, Debye-Ang):
   XX=             -0.5557   YY=              0.3522   ZZ=              0.2035
   XY=             -0.4851   XZ=              0.5220   YZ=              0.0006
 Octapole moment (field-independent basis, Debye-Ang**2):
  XXX=            177.0612  YYY=              0.0491  ZZZ=             -0.0402  XYY=              2.6430
  XXY=              0.8200  XXZ=             -0.7335  XZZ=              1.0927  YZZ=              0.0658
  YYZ=             -0.0535  XYZ=             12.1747
 Hexadecapole moment (field-independent basis, Debye-Ang**3):
 XXXX=          -1039.1845 YYYY=            -14.4264 ZZZZ=            -14.4732 XXXY=             -8.7433
 XXXZ=              9.1303 YYYX=             -0.5560 YYYZ=              0.0554 ZZZX=              0.6027
 ZZZY=             -0.0548 XXYY=           -162.7677 XXZZ=           -165.5985 YYZZ=             -4.2253
 XXYZ=              6.7351 YYXZ=              0.2534 ZZXY=             -0.2150
 N-N= 2.564596555412D+01 E-N=-4.130854537572D+02  KE= 1.524346290635D+02
  Exact polarizability:       0.000       0.000       0.000       0.000       0.000       0.000
 Approx polarizability:      12.142      -0.073      13.143       0.071       0.006      13.031
 Rotating derivatives to standard orientation.
 ***** Axes restored to original set *****
 -------------------------------------------------------------------
 Center     Atomic                   Forces (Hartrees/Bohr)
 Number     Number              X              Y              Z
 -------------------------------------------------------------------
      1        8          -0.000127325   -0.000000660    0.000009761
      2        1           0.000002897   -0.000002171    0.000003803
      3        1           0.000001718    0.000002469   -0.000001629
      4        8           0.000152638    0.000000013   -0.000028690
      5        1          -0.000007392   -0.000001333    0.000011011
      6        1          -0.000022536    0.000001682    0.000005744
 -------------------------------------------------------------------
 Cartesian Forces:  Max     0.000152638 RMS     0.000047836
 Unable to Open any file for archive entry.
 1\1\GINC-B001\Scan\RwB97XD\6-311++G(d,p)\H4O2\YUNWENT\15-May-2021\0\\#
  opt(MaxCycles=200,RecalcFC=3,loose,modredundant) int(ultrafine) rwb97
 xd/6-311++g(d,p)\\Energy: -26.09245376\\0,1\O,3.4002593002,0.000463774
 7,-0.2973316087\H,3.9791570582,0.7593328859,-0.3752379457\H,3.97594575
 08,-0.7619877091,-0.3631576716\O,-3.8450351132,0.0015739903,0.40985095
 61\H,-3.2245215695,-0.0106781076,1.1392469828\H,-3.3014576665,0.011230
 0358,-0.3786280729\\Version=ES64L-G16RevC.01\State=1-A\HF=-152.8747364
 ,-152.8727613,-152.870304,-152.8685606,-152.8674586,-152.8667364,-152.
 8662521,-152.8659195,-152.8656817,-152.8655071,-152.8653737,-152.86526
 97\RMSD=6.653e-09,6.111e-09,8.310e-09,4.599e-09,6.589e-09,8.474e-09,4.
 271e-09,9.765e-09,9.321e-09,2.224e-09,4.844e-09,2.532e-09\PG=C01 [X(H4
 O2)]\\@
 The archive entry for this job was punched.


 NEVER LOSE YOUR IGNORANCE, IT CAN'T BE REPLACED.
   -- ANDY CAPP
 Job cpu time:       0 days  7 hours 43 minutes 41.6 seconds.
 Elapsed time:       0 days  0 hours 15 minutes 36.6 seconds.
 File lengths (MBytes):  RWF=      7 Int=      0 D2E=      0 Chk=      2 Scr=      1
 Normal termination of Gaussian 16 at Sat May 15 22:21:12 2021.
