title                                                                   
Freq      RwB97XD                                                     6-311++G(d,p)       
Number of atoms                            I                3
Info1-9                                    I   N=           9
          14          13        1002           0           0         100
           6          18       -5802
Full Title                                 C   N=           1
title       
Route                                      C   N=           4
# opt freq rwb97xd/6-311++g(d,p) int=ultrafine  
Charge                                     I                0
Multiplicity                               I                1
Number of electrons                        I               10
Number of alpha electrons                  I                5
Number of beta electrons                   I                5
Number of basis functions                  I               36
Number of independent functions            I               36
Number of point charges in /Mol/           I                0
Number of translation vectors              I                0
Atomic numbers                             I   N=           3
           8           1           1
Nuclear charges                            R   N=           3
  8.00000000E+00  1.00000000E+00  1.00000000E+00
Current cartesian coordinates              R   N=           9
  5.02236693E-17  2.19868057E-01  4.99798842E-20  1.43750580E+00 -8.79572454E-01
 -3.52970545E-19 -1.43750580E+00 -8.79372005E-01  5.25355160E-20
Number of symbols in /Mol/                 I                0
Int Atom Types                             I   N=           3
           0           0           0
Force Field                                I                0
Atom Types                                 C   N=           3
                                    
MM charges                                 R   N=           3
  0.00000000E+00  0.00000000E+00  0.00000000E+00
Integer atomic weights                     I   N=           3
          16           1           1
Real atomic weights                        R   N=           3
  1.59949146E+01  1.00782504E+00  1.00782504E+00
Atom fragment info                         I   N=           3
           0           0           0
Atom residue num                           I   N=           3
           0           0           0
Nuclear spins                              I   N=           3
           0           1           1
Nuclear ZEff                               R   N=           3
 -5.60000000E+00 -1.00000000E+00 -1.00000000E+00
Nuclear ZNuc                               R   N=           3
  8.00000000E+00  1.00000000E+00  1.00000000E+00
Nuclear QMom                               R   N=           3
  0.00000000E+00  0.00000000E+00  0.00000000E+00
Nuclear GFac                               R   N=           3
  0.00000000E+00  2.79284600E+00  2.79284600E+00
MicOpt                                     I   N=           3
          -1          -1          -1
Number of residues                         I                0
Number of secondary structures             I                0
Redundant internal dimensions              I   N=           4
           3           2           1           0
Redundant internal coordinate indices      I   N=          12
           1           2           0           0           1           3
           0           0           2           1           3           0
Redundant internal coordinates             R   N=           3
  1.80974926E+00  1.80962749E+00  1.83583694E+00
ZRed-IntVec                                I   N=           3
           0           0           0
ZRed-FPVec                                 R   N=           3
  0.00000000E+00  0.00000000E+00  0.00000000E+00
ZRed-Constraint1                           R   N=           3
  1.80974926E+00  1.80962749E+00  1.83583694E+00
ZRed-Constraint2                           R   N=           3
  1.80798388E+00  1.82592608E+00  1.83587132E+00
SymInf integers                            I   N=          26
           1           2           1           1           1           1
           1          -1           0           0           0           0
           0           0           0           0           0           0
           0           0           0           0           0           0
           0           0
RotTr to input orientation                 R   N=          12
 -8.71318384E-01  1.18865519E-04  4.90718107E-01 -4.90718121E-01 -2.31309265E-04
 -8.71318353E-01  9.93793576E-06 -9.99999966E-01  2.59873479E-04 -2.72878689E+00
 -5.91388481E-06 -3.49952976E-02
Number of contracted shells                I               16
Number of primitive shells                 I               27
Pure/Cartesian d shells                    I                0
Pure/Cartesian f shells                    I                0
Highest angular momentum                   I                2
Largest degree of contraction              I                6
Shell types                                I   N=          16
           0          -1          -1          -1          -1          -2
           0           0           0           0           1           0
           0           0           0           1
Number of primitives per shell             I   N=          16
           6           3           1           1           1           1
           3           1           1           1           1           3
           1           1           1           1
Shell to atom map                          I   N=          16
           1           1           1           1           1           1
           2           2           2           2           2           3
           3           3           3           3
Primitive exponents                        R   N=          27
  8.58850000E+03  1.29723000E+03  2.99296000E+02  8.73771000E+01  2.56789000E+01
  3.74004000E+00  4.21175000E+01  9.62837000E+00  2.85332000E+00  9.05661000E-01
  2.55611000E-01  8.45000000E-02  1.29200000E+00  3.38650000E+01  5.09479000E+00
  1.15879000E+00  3.25840000E-01  1.02741000E-01  3.60000000E-02  7.50000000E-01
  3.38650000E+01  5.09479000E+00  1.15879000E+00  3.25840000E-01  1.02741000E-01
  3.60000000E-02  7.50000000E-01
Contraction coefficients                   R   N=          27
  1.89515008E-03  1.43859006E-02  7.07320031E-02  2.40001011E-01  5.94797026E-01
  2.80802012E-01  1.13889012E-01  9.20811101E-01 -3.27447036E-03  1.00000000E+00
  1.00000000E+00  1.00000000E+00  1.00000000E+00  2.54938145E-02  1.90373109E-01
  8.52161486E-01  1.00000000E+00  1.00000000E+00  1.00000000E+00  1.00000000E+00
  2.54938145E-02  1.90373109E-01  8.52161486E-01  1.00000000E+00  1.00000000E+00
  1.00000000E+00  1.00000000E+00
P(S=P) Contraction coefficients            R   N=          27
  0.00000000E+00  0.00000000E+00  0.00000000E+00  0.00000000E+00  0.00000000E+00
  0.00000000E+00  3.65113974E-02  2.37152983E-01  8.19701941E-01  1.00000000E+00
  1.00000000E+00  1.00000000E+00  0.00000000E+00  0.00000000E+00  0.00000000E+00
  0.00000000E+00  0.00000000E+00  0.00000000E+00  0.00000000E+00  0.00000000E+00
  0.00000000E+00  0.00000000E+00  0.00000000E+00  0.00000000E+00  0.00000000E+00
  0.00000000E+00  0.00000000E+00
Coordinates of each shell                  R   N=          48
  3.66035058E-17  2.19868057E-01  2.92144191E-20  3.66035058E-17  2.19868057E-01
  2.92144191E-20  3.66035058E-17  2.19868057E-01  2.92144191E-20  3.66035058E-17
  2.19868057E-01  2.92144191E-20  3.66035058E-17  2.19868057E-01  2.92144191E-20
  3.66035058E-17  2.19868057E-01  2.92144191E-20  1.43750580E+00 -8.79572454E-01
 -1.90340219E-19  1.43750580E+00 -8.79572454E-01 -1.90340219E-19  1.43750580E+00
 -8.79572454E-01 -1.90340219E-19  1.43750580E+00 -8.79572454E-01 -1.90340219E-19
  1.43750580E+00 -8.79572454E-01 -1.90340219E-19 -1.43750580E+00 -8.79372005E-01
  2.42257020E-20 -1.43750580E+00 -8.79372005E-01  2.42257020E-20 -1.43750580E+00
 -8.79372005E-01  2.42257020E-20 -1.43750580E+00 -8.79372005E-01  2.42257020E-20
 -1.43750580E+00 -8.79372005E-01  2.42257020E-20
Num ILSW                                   I              100
ILSW                                       I   N=         100
           0           0           0           0           2           0
           0           0           0           0        4639          -1
           5           0           0           0           2           0
           0           0           1           0           1           0
           1           0           0           0           0           0
           0           0      100000           0          -1           0
           0           0           0           0           0           0
           0           0           0           1           0           0
           0 -2000000000           1           0           0           0
           0           0         121          52           0           0
           0           0          58           0           0           0
           0           0           0           0           0           1
           0           0           0           0           0           0
           0           0           0           0           0           0
           0           0           0           0           0           0
           0           0           0           0           0           0
           0           0           0           0
Num RLSW                                   I               52
RLSW                                       R   N=          52
  1.00000000E+00  1.00000000E+00  1.00000000E+00  1.00000000E+00  1.00000000E+00
  0.00000000E+00  2.00000000E-01  2.22036000E-01  0.00000000E+00  7.77964000E-01
  0.00000000E+00  2.00000000E-01  0.00000000E+00  0.00000000E+00  1.00000000E+00
  0.00000000E+00  0.00000000E+00  1.00000000E+00  0.00000000E+00  0.00000000E+00
  0.00000000E+00  0.00000000E+00  1.00000000E+00  0.00000000E+00  0.00000000E+00
  0.00000000E+00  0.00000000E+00  1.00000000E+00  0.00000000E+00  0.00000000E+00
  0.00000000E+00  0.00000000E+00  1.00000000E+00  0.00000000E+00  0.00000000E+00
  0.00000000E+00  0.00000000E+00  0.00000000E+00  1.00000000E+00  1.00000000E+00
  0.00000000E+00  1.00000000E+00  0.00000000E+00  0.00000000E+00  0.00000000E+00
  0.00000000E+00  0.00000000E+00  0.00000000E+00  0.00000000E+00  0.00000000E+00
  0.00000000E+00  0.00000000E+00
MxBond                                     I                2
NBond                                      I   N=           3
           2           1           1
IBond                                      I   N=           6
           2           3           1           0           1           0
RBond                                      R   N=           6
  1.00000000E+00  1.00000000E+00  1.00000000E+00  0.00000000E+00  1.00000000E+00
  0.00000000E+00
Virial Ratio                               R      2.002813001352527E+00
SCF Energy                                 R     -7.643235421192817E+01
Total Energy                               R     -7.643235421192817E+01
RMS Force                                  R      4.131370065723613E-05
RMS Density                                R      7.424841371866664E-10
NImag                                      I                0
Job Status                                 I                1
Nuclear derivative order                   I                2
Thermal Energy                             R     -7.640783690064963E+01
Thermal Enthalpy                           R     -7.640689271583598E+01
Thermal Free Energy                        R     -7.642895603458713E+01
External E-field                           R   N=          35
  0.00000000E+00  0.00000000E+00  0.00000000E+00  0.00000000E+00  0.00000000E+00
  0.00000000E+00  0.00000000E+00  0.00000000E+00  0.00000000E+00  0.00000000E+00
  0.00000000E+00  0.00000000E+00  0.00000000E+00  0.00000000E+00  0.00000000E+00
  0.00000000E+00  0.00000000E+00  0.00000000E+00  0.00000000E+00  0.00000000E+00
  0.00000000E+00  0.00000000E+00  0.00000000E+00  0.00000000E+00  0.00000000E+00
  0.00000000E+00  0.00000000E+00  0.00000000E+00  0.00000000E+00  0.00000000E+00
  0.00000000E+00  0.00000000E+00  0.00000000E+00  0.00000000E+00  0.00000000E+00
IOpCl                                      I                0
IROHF                                      I                0
Alpha Orbital Energies                     R   N=          36
 -1.92531667E+01 -1.12195697E+00 -6.29387631E-01 -4.81207083E-01 -4.06850626E-01
  3.99397896E-02  7.51596026E-02  2.08947794E-01  2.32406798E-01  2.32701908E-01
  2.32965865E-01  2.96009770E-01  3.01825822E-01  5.81091112E-01  6.28690832E-01
  1.03995428E+00  1.07928997E+00  1.08814439E+00  1.31620566E+00  1.33641238E+00
  1.44289410E+00  1.54742365E+00  1.74975170E+00  2.07980658E+00  2.21865935E+00
  2.49001142E+00  2.65796189E+00  3.18236182E+00  3.23270881E+00  3.40039721E+00
  3.76690103E+00  3.98694815E+00  5.03881143E+00  5.41754088E+00  5.73962717E+00
  5.00017676E+01
Alpha MO coefficients                      R   N=        1296
  5.51671547E-01  4.69634833E-01 -7.16083602E-08 -1.38790124E-03  0.00000000E+00
  1.22196033E-02 -2.77806473E-07 -2.59025885E-04  0.00000000E+00 -4.66659256E-03
 -1.52266879E-07 -3.53002267E-04  0.00000000E+00  4.43500706E-03  2.86974025E-08
 -5.40465149E-04  0.00000000E+00 -3.30917402E-04  0.00000000E+00  0.00000000E+00
  1.48507971E-04  1.22191247E-07 -5.35767678E-05 -4.83356316E-04 -8.62993963E-04
 -5.32691369E-04  7.47941081E-04 -5.73059055E-04  0.00000000E+00 -5.37323305E-05
 -4.83863173E-04 -8.62811137E-04 -5.32816080E-04 -7.48320932E-04 -5.73266925E-04
  0.00000000E+00 -1.15767185E-01 -1.85875831E-01 -9.51349128E-06 -5.21250616E-02
  0.00000000E+00  5.38227488E-01 -1.29264852E-05 -8.10484125E-02  0.00000000E+00
  3.61302936E-01 -3.90809723E-06 -2.76029565E-02  0.00000000E+00 -3.48267545E-03
 -1.46528500E-07 -1.60289196E-03  0.00000000E+00 -9.62635727E-03  0.00000000E+00
  0.00000000E+00  1.34746731E-03  1.41333087E-06  9.85703033E-02  8.59798840E-02
 -5.31379753E-03  6.70148945E-03 -2.29131627E-02  1.27187711E-02  0.00000000E+00
  9.85884790E-02  8.59886542E-02 -5.31521043E-03  6.70287529E-03  2.29149709E-02
  1.27172976E-02  0.00000000E+00 -3.68412484E-06 -6.07218577E-06  2.40352723E-01
 -3.17103748E-06  0.00000000E+00  1.88170452E-05  3.48654123E-01 -6.17082616E-06
  0.00000000E+00  2.98861948E-05  2.06841212E-01 -5.27436126E-06  0.00000000E+00
  2.93141753E-06  1.29442006E-02  2.18003941E-07  0.00000000E+00  7.43315031E-07
  0.00000000E+00  0.00000000E+00 -2.51920908E-06 -2.47313401E-02  1.53245568E-01
  2.10037115E-01  3.64187291E-02  1.51656127E-02 -1.45726854E-02  2.34187591E-02
  0.00000000E+00 -1.53250753E-01 -2.10034495E-01 -3.64154425E-02 -1.51651834E-02
 -1.45720142E-02 -2.34160567E-02  0.00000000E+00 -4.33880311E-02 -7.12689304E-02
  7.83584334E-06  2.60524638E-01  0.00000000E+00  2.17935366E-01  9.94925525E-06
  3.75423789E-01  0.00000000E+00  3.16558373E-01  7.23235213E-06  2.91025926E-01
  0.00000000E+00  2.80425425E-02  3.11926020E-06  7.10853000E-02  0.00000000E+00
  1.00649006E-02  0.00000000E+00  0.00000000E+00  1.37963161E-02 -1.43136708E-06
 -8.73102396E-02 -1.43190182E-01 -2.38103189E-02 -1.39270120E-03  2.77314237E-02
  1.48067825E-02  0.00000000E+00 -8.73051156E-02 -1.43176869E-01 -2.38004763E-02
 -1.39088182E-03 -2.77299831E-02  1.48125577E-02  0.00000000E+00  0.00000000E+00
  0.00000000E+00  0.00000000E+00  0.00000000E+00  2.95833585E-01  0.00000000E+00
  0.00000000E+00  0.00000000E+00  4.34591415E-01  0.00000000E+00  0.00000000E+00
  0.00000000E+00  4.01270542E-01  0.00000000E+00  0.00000000E+00  0.00000000E+00
  1.04633238E-01  0.00000000E+00 -1.36552842E-06 -1.73105263E-02  0.00000000E+00
  0.00000000E+00  0.00000000E+00  0.00000000E+00  0.00000000E+00  0.00000000E+00
  0.00000000E+00  0.00000000E+00  3.48780116E-02  0.00000000E+00  0.00000000E+00
  0.00000000E+00  0.00000000E+00  0.00000000E+00  0.00000000E+00  3.48809806E-02
 -2.41309417E-02 -4.08335860E-02  7.23211659E-06 -5.44526874E-02  0.00000000E+00
  1.53694474E-01  1.17778310E-05 -7.82538918E-02  0.00000000E+00  9.33117440E-02
  9.61272383E-06 -1.15390015E-01  0.00000000E+00  8.67589568E-01  2.53229133E-05
 -6.30313937E-02  0.00000000E+00 -1.94929046E-04  0.00000000E+00  0.00000000E+00
 -3.87704320E-03  7.02451596E-07 -7.54256116E-03 -9.52339173E-02 -1.29501990E-01
 -7.39793753E-01 -1.95188631E-02  1.26949681E-02  0.00000000E+00 -7.53526569E-03
 -9.52127008E-02 -1.29472682E-01 -7.39649761E-01  1.95187500E-02  1.26898349E-02
  0.00000000E+00  7.37606414E-07  1.31890104E-06  5.60497709E-02 -3.73563495E-06
  0.00000000E+00 -6.28497731E-06  9.65957075E-02 -7.13831106E-06  0.00000000E+00
  1.15917462E-05  1.08891859E-02 -1.83097317E-06  0.00000000E+00 -8.88265589E-05
  4.77161728E-01 -2.57795249E-05  0.00000000E+00  1.48395814E-07  0.00000000E+00
  0.00000000E+00 -1.82150674E-07  8.32191164E-04  7.50918354E-03 -3.87584350E-02
 -3.62614332E-02 -2.43545971E+00 -1.35165615E-02  1.33331569E-02  0.00000000E+00
 -7.51386792E-03  3.87496769E-02  3.62794842E-02  2.43555714E+00 -1.35171374E-02
 -1.33337394E-02  0.00000000E+00  3.59420641E-02  5.81441089E-02 -6.09868256E-05
  1.21898445E-01  0.00000000E+00 -1.55180322E-01 -8.11532136E-05  1.73138245E-01
  0.00000000E+00 -7.83568932E-01 -1.47692247E-04  3.11113148E-01  0.00000000E+00
 -1.52716767E+00 -6.06119348E-04  5.13112239E-01  0.00000000E+00 -4.47638356E-03
  0.00000000E+00  0.00000000E+00  1.03842337E-02 -1.10572644E-05  7.41853598E-02
  2.92752330E-02  2.17728343E+00 -8.00783172E-01  2.49840471E-02 -5.91905578E-03
  0.00000000E+00  7.40964717E-02  2.92053477E-02  2.17492367E+00 -7.99775281E-01
 -2.49741889E-02 -5.88487852E-03  0.00000000E+00 -2.17228993E-02 -3.58019944E-02
  4.91774765E-04  8.31041388E-02  0.00000000E+00  1.19480506E-01  6.53935806E-04
  7.57575077E-02  0.00000000E+00  1.90262193E-01  1.21852684E-03  4.57557483E-01
  0.00000000E+00  2.74262176E+00  6.34645445E-03 -2.20669415E+00  0.00000000E+00
  1.44233203E-02  0.00000000E+00  0.00000000E+00  3.98177045E-04  7.83044970E-05
 -3.63341507E-02  7.57146912E-02 -2.01433067E+00  1.05881427E-01 -2.85222235E-02
 -7.71078452E-03  0.00000000E+00 -3.56835643E-02  7.59875927E-02 -1.99134069E+00
  9.83373577E-02  2.84221844E-02 -7.97391936E-03  0.00000000E+00  0.00000000E+00
  0.00000000E+00  0.00000000E+00  0.00000000E+00 -1.34514992E-01  0.00000000E+00
  0.00000000E+00  0.00000000E+00 -1.38055327E-01  0.00000000E+00  0.00000000E+00
  0.00000000E+00 -5.30899316E-01  0.00000000E+00  0.00000000E+00  0.00000000E+00
  1.24710756E+00  0.00000000E+00  1.14447451E-06  7.80567382E-03  0.00000000E+00
  0.00000000E+00  0.00000000E+00  0.00000000E+00  0.00000000E+00  0.00000000E+00
  0.00000000E+00  0.00000000E+00  1.39671747E-02  0.00000000E+00  0.00000000E+00
  0.00000000E+00  0.00000000E+00  0.00000000E+00  0.00000000E+00  1.39657730E-02
  9.73571813E-05  1.59872875E-04  1.29437867E-01 -2.64642416E-04  0.00000000E+00
 -5.12404631E-04  1.72307838E-01 -2.19485534E-04  0.00000000E+00 -1.09382323E-03
  3.14463058E-01 -1.58727649E-03  0.00000000E+00 -1.12257183E-02  1.78052762E+00
  8.43490691E-03  0.00000000E+00 -5.52207594E-05  0.00000000E+00  0.00000000E+00
  4.46919943E-06  2.15299113E-02 -8.73534828E-02 -3.16576731E-02 -3.12784708E+00
  9.89619894E-01 -1.31744311E-02  3.52713458E-02  0.00000000E+00  8.76740571E-02
  3.10555342E-02  3.14509744E+00 -9.91046847E-01 -1.34143814E-02 -3.52208908E-02
  0.00000000E+00 -6.42766417E-06 -1.03425906E-05 -1.25152644E-01  1.44244165E-05
  0.00000000E+00  2.30598552E-05 -1.43181817E-01  6.46400669E-06  0.00000000E+00
  2.35277667E-04 -6.13120128E-01  6.83693085E-05  0.00000000E+00 -1.60919002E-03
  2.64438132E+00  1.96012535E-04  0.00000000E+00 -3.96404176E-06  0.00000000E+00
  0.00000000E+00  5.15489397E-06  2.15032817E-02 -7.54504423E-03  1.31660396E-01
 -1.13409869E+00 -1.84248244E+00  1.00366192E-02  1.19051018E-02  0.00000000E+00
  7.55683958E-03 -1.31704565E-01  1.13540146E+00  1.84272864E+00  1.00263401E-02
 -1.19082012E-02  0.00000000E+00  2.55501820E-02  4.02918898E-02 -2.78891136E-05
 -2.46272695E-02  0.00000000E+00 -6.88274133E-02 -2.37159313E-05  1.33389382E-02
  0.00000000E+00 -1.07914961E+00 -1.31101386E-04 -9.21409975E-02  0.00000000E+00
  8.81431248E+00  2.35191363E-04 -2.34666443E+00  0.00000000E+00  2.17377455E-02
  0.00000000E+00  0.00000000E+00 -1.18834031E-02  3.14079731E-06 -2.71141506E-02
  1.30102116E-01 -4.12390857E+00 -4.14089591E-01 -3.06129117E-02  5.94001623E-03
  0.00000000E+00 -2.71140530E-02  1.30088419E-01 -4.12406416E+00 -4.13556975E-01
  3.06224717E-02  5.93835226E-03  0.00000000E+00 -1.28413728E-05 -2.18417060E-05
  1.40265340E-01 -5.44671719E-05  0.00000000E+00  6.83325197E-05  2.44180938E-01
 -9.67880665E-05  0.00000000E+00  2.67150211E-04  9.34171358E-01 -3.06626334E-04
  0.00000000E+00 -1.45551082E-03 -1.62173128E+00  6.45409245E-04  0.00000000E+00
  5.68230046E-06  0.00000000E+00  0.00000000E+00 -5.85785437E-06  2.51924523E-02
 -1.18130014E-01 -1.60346366E+00  3.40764186E+00 -7.92782592E-01  2.13056390E-02
  1.34710107E-02  0.00000000E+00  1.18030955E-01  1.60207193E+00 -3.40473070E+00
  7.92345109E-01  2.13055367E-02 -1.34931518E-02  0.00000000E+00  3.41102924E-02
  5.85292899E-02  6.55268007E-05  1.15628063E-01  0.00000000E+00 -1.80544766E-01
  1.24809469E-04  2.23090212E-01  0.00000000E+00 -1.10240946E+00  5.64534123E-04
  8.51444833E-01  0.00000000E+00  4.34056593E+00 -8.79927793E-04 -1.56331594E+00
  0.00000000E+00 -1.22972132E-02  0.00000000E+00  0.00000000E+00  1.93605738E-02
  8.28209588E-06  1.13139496E-01  1.90439099E+00 -3.78442945E+00  4.24392698E-01
 -7.10099845E-03  3.50221191E-02  0.00000000E+00  1.13236083E-01  1.90595238E+00
 -3.78755112E+00  4.24872871E-01  7.13239978E-03  3.50151307E-02  0.00000000E+00
  4.85873215E-04 -2.24948168E-03 -4.44111345E-05 -2.45539282E-01  0.00000000E+00
  1.78038194E-01 -1.00382842E-04 -6.93420453E-01  0.00000000E+00 -1.57102233E+00
  4.15726479E-04  2.09890160E+00  0.00000000E+00  1.98988776E+00 -2.62901889E-04
 -1.31812604E+00  0.00000000E+00  8.80498499E-03  0.00000000E+00  0.00000000E+00
  7.72763000E-03 -6.09273257E-06  2.69249802E-02  9.73333871E-01 -1.06131330E+00
 -9.95477356E-02 -1.10535380E-01  2.17843623E-01  0.00000000E+00  2.69395300E-02
  9.73565722E-01 -1.06141184E+00 -9.98329130E-02  1.10616561E-01  2.17850592E-01
  0.00000000E+00  0.00000000E+00  0.00000000E+00  0.00000000E+00  0.00000000E+00
 -2.65846824E-01  0.00000000E+00  0.00000000E+00  0.00000000E+00 -8.53385301E-01
  0.00000000E+00  0.00000000E+00  0.00000000E+00  1.59839754E+00  0.00000000E+00
  0.00000000E+00  0.00000000E+00 -7.79410284E-01  0.00000000E+00  3.53727177E-06
  2.44802775E-03  0.00000000E+00  0.00000000E+00  0.00000000E+00  0.00000000E+00
  0.00000000E+00  0.00000000E+00  0.00000000E+00  0.00000000E+00  3.53079552E-02
  0.00000000E+00  0.00000000E+00  0.00000000E+00  0.00000000E+00  0.00000000E+00
  0.00000000E+00  3.52609536E-02 -2.31402733E-06 -3.50248477E-06 -2.36657347E-01
  4.21208915E-05  0.00000000E+00 -9.64909101E-06 -6.85442036E-01  1.37999189E-04
  0.00000000E+00  1.10581220E-04  2.38564331E+00 -4.05535175E-04  0.00000000E+00
 -2.31713896E-04 -1.59738081E+00  2.77000948E-04  0.00000000E+00  1.72584409E-06
  0.00000000E+00  0.00000000E+00 -1.59472241E-06 -5.75912843E-03 -2.65334726E-02
 -7.44653978E-01  4.59316498E-01  9.35581678E-01  1.85903137E-01 -1.01416291E-01
  0.00000000E+00  2.65407595E-02  7.44372385E-01 -4.58923059E-01 -9.35607459E-01
  1.85869537E-01  1.01358804E-01  0.00000000E+00  3.58908283E-02  7.00603424E-02
 -5.51791239E-06 -2.83253981E-02  0.00000000E+00 -4.74564207E-01 -3.34701581E-05
 -1.92149221E-01  0.00000000E+00  3.55262000E-01  1.15004052E-04  1.17759997E+00
  0.00000000E+00 -8.38533431E-01 -2.27624528E-05 -1.34509774E-01  0.00000000E+00
 -3.01592039E-02  0.00000000E+00  0.00000000E+00 -1.31010560E-01  1.16804675E-05
 -3.59071810E-02  5.88713275E-01 -7.03850339E-02  1.51925272E-01 -3.98026115E-01
 -5.27553728E-01  0.00000000E+00 -3.59054307E-02  5.88788303E-01 -7.03833465E-02
  1.51924035E-01  3.97982173E-01 -5.27579571E-01  0.00000000E+00  0.00000000E+00
  0.00000000E+00  0.00000000E+00  0.00000000E+00  1.07520827E-05  0.00000000E+00
  0.00000000E+00  0.00000000E+00  5.40970181E-05  0.00000000E+00  0.00000000E+00
  0.00000000E+00 -6.15709551E-05  0.00000000E+00  0.00000000E+00  0.00000000E+00
  1.90975489E-05  0.00000000E+00  1.33158477E-01 -1.41650272E-05  0.00000000E+00
  0.00000000E+00  0.00000000E+00  0.00000000E+00  0.00000000E+00  0.00000000E+00
  0.00000000E+00  0.00000000E+00  6.85612535E-01  0.00000000E+00  0.00000000E+00
  0.00000000E+00  0.00000000E+00  0.00000000E+00  0.00000000E+00 -6.85570179E-01
  1.05160682E-01  2.10982286E-01 -2.80973940E-06 -2.60468510E-02  0.00000000E+00
 -1.76767313E+00 -7.46423337E-05 -2.50376957E-01  0.00000000E+00  4.57348101E+00
 -9.82197894E-05 -1.07344963E+00  0.00000000E+00 -4.26595950E+00  6.77243411E-05
  9.37236726E-01  0.00000000E+00  1.72776908E-02  0.00000000E+00  0.00000000E+00
  5.80768077E-02  9.87903213E-06  2.09618015E-02 -1.58173782E+00  1.69631156E+00
  2.67892070E-01  4.50171122E-01 -6.21831235E-03  0.00000000E+00  2.09432136E-02
 -1.58194557E+00  1.69641928E+00  2.67980298E-01 -4.50215981E-01 -6.24367602E-03
  0.00000000E+00  0.00000000E+00  0.00000000E+00  0.00000000E+00  0.00000000E+00
 -2.26416866E-02  0.00000000E+00  0.00000000E+00  0.00000000E+00  3.69717223E-02
  0.00000000E+00  0.00000000E+00  0.00000000E+00 -7.59015512E-01  0.00000000E+00
  0.00000000E+00  0.00000000E+00  1.39046822E-01  0.00000000E+00 -9.90565795E-06
 -1.59814305E-01  0.00000000E+00  0.00000000E+00  0.00000000E+00  0.00000000E+00
  0.00000000E+00  0.00000000E+00  0.00000000E+00  0.00000000E+00  7.66536557E-01
  0.00000000E+00  0.00000000E+00  0.00000000E+00  0.00000000E+00  0.00000000E+00
  0.00000000E+00  7.66590885E-01  3.00982737E-06  6.23263736E-06 -1.37816538E-02
 -1.85283654E-06  0.00000000E+00 -4.63485550E-05 -6.85484307E-02 -7.50380034E-06
  0.00000000E+00 -3.50801701E-05  1.15341453E+00 -4.65679489E-05  0.00000000E+00
 -2.88710505E-05 -4.30410631E-01  3.66676238E-05  0.00000000E+00 -3.46840584E-07
  0.00000000E+00  0.00000000E+00  1.67478637E-06 -3.38989848E-02  8.15377231E-02
 -7.77542435E-01  5.81718049E-01 -5.37234963E-03 -4.82902229E-01 -6.69228965E-01
  0.00000000E+00 -8.15171693E-02  7.77571735E-01 -5.81652642E-01  5.36099458E-03
 -4.82821244E-01  6.69318762E-01  0.00000000E+00  1.65755522E-05  3.18150901E-05
 -1.82899216E-01  6.11834369E-05  0.00000000E+00 -1.33189467E-04 -5.45561076E-01
  1.86211939E-04  0.00000000E+00 -4.84083880E-04  1.04937609E-01  1.69882421E-04
  0.00000000E+00  4.10030776E-06 -4.26526604E-01  2.23254493E-05  0.00000000E+00
 -8.43266549E-05  0.00000000E+00  0.00000000E+00 -1.05656650E-05 -2.14479559E-01
  5.81812466E-01 -7.12941273E-01  1.32962873E+00 -3.94649614E-01 -4.62288640E-01
  5.06263746E-01  0.00000000E+00 -5.81516751E-01  7.13061119E-01 -1.32925493E+00
  3.94526288E-01 -4.61745673E-01 -5.05883749E-01  0.00000000E+00  4.94467392E-02
  9.76142715E-02  8.11588615E-05  1.54482755E-01  0.00000000E+00 -5.67233227E-01
  2.34149823E-04  4.14418715E-01  0.00000000E+00 -4.52787224E-01 -1.79631020E-04
  5.26170112E-02  0.00000000E+00 -9.30990501E-01  2.57301555E-04  2.99892068E-01
  0.00000000E+00 -2.69412803E-01  0.00000000E+00  0.00000000E+00  5.99375595E-02
  1.01608434E-04  6.04756222E-01 -5.01239844E-01  1.10204453E+00 -1.68091000E-01
 -6.22285286E-01  3.78109941E-01  0.00000000E+00  6.05321529E-01 -5.02061224E-01
  1.10327676E+00 -1.68363349E-01  6.22621767E-01  3.78326641E-01  0.00000000E+00
  3.33145252E-02  7.90558904E-02 -2.03861324E-06 -3.64392183E-02  0.00000000E+00
 -5.73736741E-01  1.98242263E-04  5.38072851E-01  0.00000000E+00 -2.32210958E+00
  2.25861623E-04  1.03476657E+00  0.00000000E+00  2.30252762E+00 -1.31710436E-04
 -7.69315951E-01  0.00000000E+00  3.49719991E-02  0.00000000E+00  0.00000000E+00
 -6.14911023E-02 -3.55099155E-05 -9.35407029E-01  2.86276532E+00 -2.08577937E+00
  2.03660247E-01 -7.41765754E-01  5.39725586E-01  0.00000000E+00 -9.35393220E-01
  2.86339271E+00 -2.08608259E+00  2.03610790E-01  7.42140131E-01  5.39909056E-01
  0.00000000E+00 -2.56790641E-06 -7.93387294E-06  2.46019397E-02 -4.16620955E-06
  0.00000000E+00  1.26455709E-04 -7.87703253E-01 -1.66461720E-05  0.00000000E+00
  1.28744518E-04 -1.01487749E+00  3.04451557E-05  0.00000000E+00 -2.21261645E-05
  6.45955766E-01 -4.11888505E-05  0.00000000E+00 -1.40546377E-05  0.00000000E+00
  0.00000000E+00  2.64672702E-05  2.29853558E-01 -9.37664577E-01  2.57620410E+00
 -1.67791997E+00  3.69877467E-01 -7.96355657E-01  6.08241451E-01  0.00000000E+00
  9.37383908E-01 -2.57610180E+00  1.67774622E+00 -3.69811406E-01 -7.96513047E-01
 -6.08253736E-01  0.00000000E+00  0.00000000E+00  0.00000000E+00  0.00000000E+00
  0.00000000E+00  2.44884742E-03  0.00000000E+00  0.00000000E+00  0.00000000E+00
  1.57077174E-02  0.00000000E+00  0.00000000E+00  0.00000000E+00 -3.26536449E-01
  0.00000000E+00  0.00000000E+00  0.00000000E+00  5.58804561E-02  0.00000000E+00
 -6.41186443E-04  1.03211352E+00  0.00000000E+00  0.00000000E+00  0.00000000E+00
  0.00000000E+00  0.00000000E+00  0.00000000E+00  0.00000000E+00  0.00000000E+00
  3.68586903E-01  0.00000000E+00  0.00000000E+00  0.00000000E+00  0.00000000E+00
  0.00000000E+00  0.00000000E+00  3.68164330E-01  0.00000000E+00  0.00000000E+00
  0.00000000E+00  0.00000000E+00 -4.57695524E-06  0.00000000E+00  0.00000000E+00
  0.00000000E+00  4.24610276E-06  0.00000000E+00  0.00000000E+00  0.00000000E+00
 -2.48223095E-04  0.00000000E+00  0.00000000E+00  0.00000000E+00  4.62240458E-05
  0.00000000E+00  1.05299115E+00  6.45158631E-04  0.00000000E+00  0.00000000E+00
  0.00000000E+00  0.00000000E+00  0.00000000E+00  0.00000000E+00  0.00000000E+00
  0.00000000E+00 -3.45860013E-01  0.00000000E+00  0.00000000E+00  0.00000000E+00