 Entering Gaussian System, Link 0=g16
 Input=single-wat.com
 Output=single-wat.log
 Initial command:
 /hpc/applications/gaussian/g16c/g16/l1.exe "/scratch/users/yunwent/wat-dimer/Gau-14302.inp" -scrdir="/scratch/users/yunwent/wat-dimer/"
 Entering Link 1 = /hpc/applications/gaussian/g16c/g16/l1.exe PID=     14303.
  
 Copyright (c) 1988-2019, Gaussian, Inc.  All Rights Reserved.
  
 This is part of the Gaussian(R) 16 program.  It is based on
 the Gaussian(R) 09 system (copyright 2009, Gaussian, Inc.),
 the Gaussian(R) 03 system (copyright 2003, Gaussian, Inc.),
 the Gaussian(R) 98 system (copyright 1998, Gaussian, Inc.),
 the Gaussian(R) 94 system (copyright 1995, Gaussian, Inc.),
 the Gaussian 92(TM) system (copyright 1992, Gaussian, Inc.),
 the Gaussian 90(TM) system (copyright 1990, Gaussian, Inc.),
 the Gaussian 88(TM) system (copyright 1988, Gaussian, Inc.),
 the Gaussian 86(TM) system (copyright 1986, Carnegie Mellon
 University), and the Gaussian 82(TM) system (copyright 1983,
 Carnegie Mellon University). Gaussian is a federally registered
 trademark of Gaussian, Inc.
  
 This software contains proprietary and confidential information,
 including trade secrets, belonging to Gaussian, Inc.
  
 This software is provided under written license and may be
 used, copied, transmitted, or stored only in accord with that
 written license.
  
 The following legend is applicable only to US Government
 contracts under FAR:
  
                    RESTRICTED RIGHTS LEGEND
  
 Use, reproduction and disclosure by the US Government is
 subject to restrictions as set forth in subparagraphs (a)
 and (c) of the Commercial Computer Software - Restricted
 Rights clause in FAR 52.227-19.
  
 Gaussian, Inc.
 340 Quinnipiac St., Bldg. 40, Wallingford CT 06492
  
  
 ---------------------------------------------------------------
 Warning -- This program may not be used in any manner that
 competes with the business of Gaussian, Inc. or will provide
 assistance to any competitor of Gaussian, Inc.  The licensee
 of this program is prohibited from giving any competitor of
 Gaussian, Inc. access to this program.  By using this program,
 the user acknowledges that Gaussian, Inc. is engaged in the
 business of creating and licensing software in the field of
 computational chemistry and represents and warrants to the
 licensee that it is not a competitor of Gaussian, Inc. and that
 it will not use this program in any manner prohibited above.
 ---------------------------------------------------------------
  

 Cite this work as:
 Gaussian 16, Revision C.01,
 M. J. Frisch, G. W. Trucks, H. B. Schlegel, G. E. Scuseria, 
 M. A. Robb, J. R. Cheeseman, G. Scalmani, V. Barone, 
 G. A. Petersson, H. Nakatsuji, X. Li, M. Caricato, A. V. Marenich, 
 J. Bloino, B. G. Janesko, R. Gomperts, B. Mennucci, H. P. Hratchian, 
 J. V. Ortiz, A. F. Izmaylov, J. L. Sonnenberg, D. Williams-Young, 
 F. Ding, F. Lipparini, F. Egidi, J. Goings, B. Peng, A. Petrone, 
 T. Henderson, D. Ranasinghe, V. G. Zakrzewski, J. Gao, N. Rega, 
 G. Zheng, W. Liang, M. Hada, M. Ehara, K. Toyota, R. Fukuda, 
 J. Hasegawa, M. Ishida, T. Nakajima, Y. Honda, O. Kitao, H. Nakai, 
 T. Vreven, K. Throssell, J. A. Montgomery, Jr., J. E. Peralta, 
 F. Ogliaro, M. J. Bearpark, J. J. Heyd, E. N. Brothers, K. N. Kudin, 
 V. N. Staroverov, T. A. Keith, R. Kobayashi, J. Normand, 
 K. Raghavachari, A. P. Rendell, J. C. Burant, S. S. Iyengar, 
 J. Tomasi, M. Cossi, J. M. Millam, M. Klene, C. Adamo, R. Cammi, 
 J. W. Ochterski, R. L. Martin, K. Morokuma, O. Farkas, 
 J. B. Foresman, and D. J. Fox, Gaussian, Inc., Wallingford CT, 2019.
 
 ******************************************
 Gaussian 16:  ES64L-G16RevC.01  3-Jul-2019
                15-May-2021 
 ******************************************
 %chk=single-wat.chk
 %nprocshared=36
 Will use up to   36 processors via shared memory.
 %mem=80GB
 ----------------------------------------------
 # opt freq rwb97xd/6-311++g(d,p) int=ultrafine
 ----------------------------------------------
 1/18=20,19=15,26=4,38=1/1,3;
 2/9=110,12=2,17=6,18=5,40=1/2;
 3/5=4,6=6,7=1111,11=2,25=1,30=1,71=1,74=-58,75=-5,116=1/1,2,3;
 4//1;
 5/5=2,38=5/2;
 6/7=2,8=2,9=2,10=2,28=1/1;
 7//1,2,3,16;
 1/18=20,19=15,26=4/3(2);
 2/9=110/2;
 99//99;
 2/9=110/2;
 3/5=4,6=6,7=1111,11=2,25=1,30=1,71=1,74=-58,75=-5,116=1/1,2,3;
 4/5=5,16=3,69=1/1;
 5/5=2,38=5/2;
 7//1,2,3,16;
 1/18=20,19=15,26=4/3(-5);
 2/9=110/2;
 6/7=2,8=2,9=2,10=2,19=2,28=1/1;
 99/9=1/99;
 -----
 title
 -----
 Symbolic Z-matrix:
 Charge =  0 Multiplicity = 1
 O                    -1.50479  -0.00003  -0.11959 
 H                    -1.87988   0.0002    0.76056 
 H                    -0.54771   0.00001   0.01312 
 

 GradGradGradGradGradGradGradGradGradGradGradGradGradGradGradGradGradGrad
 Berny optimization.
 Initialization pass.
                           ----------------------------
                           !    Initial Parameters    !
                           ! (Angstroms and Degrees)  !
 --------------------------                            --------------------------
 ! Name  Definition              Value          Derivative Info.                !
 --------------------------------------------------------------------------------
 ! R1    R(1,2)                  0.9567         estimate D2E/DX2                !
 ! R2    R(1,3)                  0.9662         estimate D2E/DX2                !
 ! A1    A(2,1,3)              105.1877         estimate D2E/DX2                !
 --------------------------------------------------------------------------------
 Trust Radius=3.00D-01 FncErr=1.00D-07 GrdErr=1.00D-06 EigMax=2.50D+02 EigMin=1.00D-04
 Number of steps in this run=     20 maximum allowed number of steps=    100.
 GradGradGradGradGradGradGradGradGradGradGradGradGradGradGradGradGradGrad

                          Input orientation:                          
 ---------------------------------------------------------------------
 Center     Atomic      Atomic             Coordinates (Angstroms)
 Number     Number       Type             X           Y           Z
 ---------------------------------------------------------------------
      1          8           0       -1.504787   -0.000030   -0.119593
      2          1           0       -1.879880    0.000195    0.760557
      3          1           0       -0.547706    0.000014    0.013120
 ---------------------------------------------------------------------
                    Distance matrix (angstroms):
                    1          2          3
     1  O    0.000000
     2  H    0.956744   0.000000
     3  H    0.966238   1.527531   0.000000
 Stoichiometry    H2O
 Framework group  CS[SG(H2O)]
 Deg. of freedom     3
 Full point group                 CS      NOp   2
 Largest Abelian subgroup         CS      NOp   2
 Largest concise Abelian subgroup C1      NOp   1
                         Standard orientation:                         
 ---------------------------------------------------------------------
 Center     Atomic      Atomic             Coordinates (Angstroms)
 Number     Number       Type             X           Y           Z
 ---------------------------------------------------------------------
      1          8           0        0.000000    0.116816    0.000000
      2          1           0        0.763725   -0.459450   -0.000000
      3          1           0       -0.763725   -0.475079   -0.000000
 ---------------------------------------------------------------------
 Rotational constants (GHZ):         827.7442658         429.7670423         282.8898656
 Standard basis: 6-311++G(d,p) (5D, 7F)
 There are    29 symmetry adapted cartesian basis functions of A'  symmetry.
 There are     8 symmetry adapted cartesian basis functions of A"  symmetry.
 There are    28 symmetry adapted basis functions of A'  symmetry.
 There are     8 symmetry adapted basis functions of A"  symmetry.
    36 basis functions,    54 primitive gaussians,    37 cartesian basis functions
     5 alpha electrons        5 beta electrons
       nuclear repulsion energy         9.1525831617 Hartrees.
 NAtoms=    3 NActive=    3 NUniq=    3 SFac= 1.00D+00 NAtFMM=   60 NAOKFM=F Big=F
 Integral buffers will be    131072 words long.
 Raffenetti 2 integral format.
 Two-electron integral symmetry is turned on.
 Nuclear repulsion after empirical dispersion term =        9.1525549541 Hartrees.
 One-electron integrals computed using PRISM.
 NBasis=    36 RedAO= T EigKep=  3.55D-03  NBF=    28     8
 NBsUse=    36 1.00D-06 EigRej= -1.00D+00 NBFU=    28     8
 ExpMin= 3.60D-02 ExpMax= 8.59D+03 ExpMxC= 1.30D+03 IAcc=3 IRadAn=         5 AccDes= 0.00D+00
 Harris functional with IExCor= 4639 and IRadAn=       5 diagonalized for initial guess.
 HarFok:  IExCor= 4639 AccDes= 0.00D+00 IRadAn=         5 IDoV= 1 UseB2=F ITyADJ=14
 ICtDFT=  3500011 ScaDFX=  1.000000  1.000000  1.000000  1.000000
 FoFCou: FMM=F IPFlag=           0 FMFlag=      100000 FMFlg1=           0
         NFxFlg=           0 DoJE=T BraDBF=F KetDBF=T FulRan=T
         wScrn=  0.000000 ICntrl=       500 IOpCl=  0 I1Cent=   200000004 NGrid=           0
         NMat0=    1 NMatS0=      1 NMatT0=    0 NMatD0=    1 NMtDS0=    0 NMtDT0=    0
 Petite list used in FoFCou.
 Initial guess orbital symmetries:
       Occupied  (A') (A') (A') (A') (A")
       Virtual   (A') (A') (A') (A') (A") (A') (A') (A') (A') (A')
                 (A') (A") (A') (A') (A") (A') (A") (A') (A') (A')
                 (A') (A') (A") (A") (A') (A') (A') (A") (A') (A')
                 (A')
 The electronic state of the initial guess is 1-A'.
 Keep R1 ints in memory in symmetry-blocked form, NReq=31579049.
 Requested convergence on RMS density matrix=1.00D-08 within 128 cycles.
 Requested convergence on MAX density matrix=1.00D-06.
 Requested convergence on             energy=1.00D-06.
 No special actions if energy rises.
 SCF Done:  E(RwB97XD) =  -76.4322799850     A.U. after   10 cycles
            NFock= 10  Conv=0.53D-08     -V/T= 2.0030

 **********************************************************************

            Population analysis using the SCF Density.

 **********************************************************************

 Orbital symmetries:
       Occupied  (A') (A') (A') (A') (A")
       Virtual   (A') (A') (A') (A') (A') (A") (A') (A') (A') (A')
                 (A') (A") (A') (A') (A") (A') (A") (A') (A') (A')
                 (A') (A') (A") (A") (A') (A') (A') (A") (A') (A')
                 (A')
 The electronic state is 1-A'.
 Alpha  occ. eigenvalues --  -19.25378  -1.12029  -0.62787  -0.48085  -0.40653
 Alpha virt. eigenvalues --    0.03970   0.07506   0.20770   0.23177   0.23254
 Alpha virt. eigenvalues --    0.23271   0.29597   0.30197   0.57899   0.62629
 Alpha virt. eigenvalues --    1.04046   1.07928   1.08838   1.31726   1.33568
 Alpha virt. eigenvalues --    1.44471   1.54670   1.74593   2.07359   2.21226
 Alpha virt. eigenvalues --    2.49176   2.65924   3.17847   3.22940   3.39500
 Alpha virt. eigenvalues --    3.76425   3.98274   5.03850   5.41214   5.72811
 Alpha virt. eigenvalues --   49.99784
          Condensed to atoms (all electrons):
               1          2          3
     1  O    7.868705   0.324762   0.323071
     2  H    0.324762   0.443306  -0.026024
     3  H    0.323071  -0.026024   0.444370
 Mulliken charges:
               1
     1  O   -0.516538
     2  H    0.257956
     3  H    0.258582
 Sum of Mulliken charges =   0.00000
 Mulliken charges with hydrogens summed into heavy atoms:
               1
     1  O    0.000000
 Electronic spatial extent (au):  <R**2>=             19.8637
 Charge=              0.0000 electrons
 Dipole moment (field-independent basis, Debye):
    X=              0.0069    Y=             -2.1824    Z=             -0.0000  Tot=              2.1824
 Quadrupole moment (field-independent basis, Debye-Ang):
   XX=             -4.3385   YY=             -6.4444   ZZ=             -7.7089
   XY=              0.0266   XZ=             -0.0000   YZ=             -0.0000
 Traceless Quadrupole moment (field-independent basis, Debye-Ang):
   XX=              1.8255   YY=             -0.2805   ZZ=             -1.5450
   XY=              0.0266   XZ=             -0.0000   YZ=             -0.0000
 Octapole moment (field-independent basis, Debye-Ang**2):
  XXX=              0.0164  YYY=             -1.5393  ZZZ=             -0.0000  XYY=             -0.0151
  XXY=             -1.3901  XXZ=             -0.0000  XZZ=              0.0067  YZZ=             -0.4511
  YYZ=             -0.0000  XYZ=              0.0000
 Hexadecapole moment (field-independent basis, Debye-Ang**3):
 XXXX=             -6.2853 YYYY=             -7.7629 ZZZZ=             -7.3183 XXXY=             -0.0006
 XXXZ=              0.0000 YYYX=              0.0009 YYYZ=             -0.0000 ZZZX=              0.0000
 ZZZY=             -0.0000 XXYY=             -2.0181 XXZZ=             -2.5702 YYZZ=             -2.5683
 XXYZ=              0.0000 YYXZ=              0.0000 ZZXY=             -0.0063
 N-N= 9.152554954092D+00 E-N=-1.991946190444D+02  KE= 7.620409263678D+01
 Symmetry A'   KE= 7.168340728166D+01
 Symmetry A"   KE= 4.520685355119D+00
 Calling FoFJK, ICntrl=      2127 FMM=F ISym2X=1 I1Cent= 0 IOpClX= 0 NMat=1 NMatS=1 NMatT=0.
 ***** Axes restored to original set *****
 -------------------------------------------------------------------
 Center     Atomic                   Forces (Hartrees/Bohr)
 Number     Number              X              Y              Z
 -------------------------------------------------------------------
      1        8           0.009046434    0.000000087   -0.000009528
      2        1          -0.000192203    0.000000262    0.001016626
      3        1          -0.008854232   -0.000000350   -0.001007098
 -------------------------------------------------------------------
 Cartesian Forces:  Max     0.009046434 RMS     0.004246831

 GradGradGradGradGradGradGradGradGradGradGradGradGradGradGradGradGradGrad
 Berny optimization.
 FormGI is forming the generalized inverse of G from B-inverse, IUseBI=4.
 Internal  Forces:  Max     0.008908428 RMS     0.005181408
 Search for a local minimum.
 Step number   1 out of a maximum of   20
 All quantities printed in internal units (Hartrees-Bohrs-Radians)
 Mixed Optimization -- RFO/linear search
 Second derivative matrix not updated -- first step.
 The second derivative matrix:
                          R1        R2        A1
           R1           0.56180
           R2           0.00000   0.54153
           A1           0.00000   0.00000   0.16000
 ITU=  0
     Eigenvalues ---    0.16000   0.54153   0.56180
 RFO step:  Lambda=-1.49323533D-04 EMin= 1.60000000D-01
 Linear search not attempted -- first point.
 Iteration  1 RMS(Cart)=  0.00779093 RMS(Int)=  0.00001917
 Iteration  2 RMS(Cart)=  0.00001639 RMS(Int)=  0.00000000
 Iteration  3 RMS(Cart)=  0.00000000 RMS(Int)=  0.00000000
 ClnCor:  largest displacement from symmetrization is 1.78D-15 for atom     3.
 Variable       Old X    -DE/DX   Delta X   Delta X   Delta X     New X
                                 (Linear)    (Quad)   (Total)
    R1        1.80798   0.00101   0.00000   0.00180   0.00180   1.80978
    R2        1.82593  -0.00891   0.00000  -0.01645  -0.01645   1.80948
    A1        1.83587  -0.00040   0.00000  -0.00250  -0.00250   1.83337
         Item               Value     Threshold  Converged?
 Maximum Force            0.008908     0.000450     NO 
 RMS     Force            0.005181     0.000300     NO 
 Maximum Displacement     0.010700     0.001800     NO 
 RMS     Displacement     0.007787     0.001200     NO 
 Predicted change in Energy=-7.468267D-05
 GradGradGradGradGradGradGradGradGradGradGradGradGradGradGradGradGradGrad

                          Input orientation:                          
 ---------------------------------------------------------------------
 Center     Atomic      Atomic             Coordinates (Angstroms)
 Number     Number       Type             X           Y           Z
 ---------------------------------------------------------------------
      1          8           0       -1.501378   -0.000030   -0.120446
      2          1           0       -1.877627    0.000195    0.760245
      3          1           0       -0.553368    0.000014    0.014284
 ---------------------------------------------------------------------
                    Distance matrix (angstroms):
                    1          2          3
     1  O    0.000000
     2  H    0.957695   0.000000
     3  H    0.957536   1.519908   0.000000
 Stoichiometry    H2O
 Framework group  CS[SG(H2O)]
 Deg. of freedom     3
 Full point group                 CS      NOp   2
 Largest Abelian subgroup         CS      NOp   2
 Largest concise Abelian subgroup C1      NOp   1
                         Standard orientation:                         
 ---------------------------------------------------------------------
 Center     Atomic      Atomic             Coordinates (Angstroms)
 Number     Number       Type             X           Y           Z
 ---------------------------------------------------------------------
      1          8           0        0.000000    0.116533    0.000000
      2          1           0        0.759954   -0.466262   -0.000000
      3          1           0       -0.759954   -0.466000    0.000000
 ---------------------------------------------------------------------
 Rotational constants (GHZ):         831.5939091         434.1375271         285.2312212
 Standard basis: 6-311++G(d,p) (5D, 7F)
 There are    29 symmetry adapted cartesian basis functions of A'  symmetry.
 There are     8 symmetry adapted cartesian basis functions of A"  symmetry.
 There are    28 symmetry adapted basis functions of A'  symmetry.
 There are     8 symmetry adapted basis functions of A"  symmetry.
    36 basis functions,    54 primitive gaussians,    37 cartesian basis functions
     5 alpha electrons        5 beta electrons
       nuclear repulsion energy         9.1897455203 Hartrees.
 NAtoms=    3 NActive=    3 NUniq=    3 SFac= 1.00D+00 NAtFMM=   60 NAOKFM=F Big=F
 Integral buffers will be    131072 words long.
 Raffenetti 2 integral format.
 Two-electron integral symmetry is turned on.
 Nuclear repulsion after empirical dispersion term =        9.1897181308 Hartrees.
 One-electron integrals computed using PRISM.
 NBasis=    36 RedAO= T EigKep=  3.48D-03  NBF=    28     8
 NBsUse=    36 1.00D-06 EigRej= -1.00D+00 NBFU=    28     8
 Initial guess from the checkpoint file:  "single-wat.chk"
 B after Tr=     0.000000    0.000000    0.000000
         Rot=    0.999994   -0.000000    0.000000    0.003541 Ang=   0.41 deg.
 Initial guess orbital symmetries:
       Occupied  (A') (A') (A') (A') (A")
       Virtual   (A') (A') (A') (A') (A') (A") (A') (A') (A') (A')
                 (A') (A") (A') (A') (A") (A') (A") (A') (A') (A')
                 (A') (A') (A") (A") (A') (A') (A') (A") (A') (A')
                 (A')
 Keep R1 ints in memory in symmetry-blocked form, NReq=31579049.
 Requested convergence on RMS density matrix=1.00D-08 within 128 cycles.
 Requested convergence on MAX density matrix=1.00D-06.
 Requested convergence on             energy=1.00D-06.
 No special actions if energy rises.
 SCF Done:  E(RwB97XD) =  -76.4323536680     A.U. after    9 cycles
            NFock=  9  Conv=0.17D-08     -V/T= 2.0028
 Calling FoFJK, ICntrl=      2127 FMM=F ISym2X=1 I1Cent= 0 IOpClX= 0 NMat=1 NMatS=1 NMatT=0.
 ***** Axes restored to original set *****
 -------------------------------------------------------------------
 Center     Atomic                   Forces (Hartrees/Bohr)
 Number     Number              X              Y              Z
 -------------------------------------------------------------------
      1        8           0.000020894    0.000000082    0.000314058
      2        1          -0.000196362   -0.000000031   -0.000112100
      3        1           0.000175467   -0.000000051   -0.000201957
 -------------------------------------------------------------------
 Cartesian Forces:  Max     0.000314058 RMS     0.000156974

 GradGradGradGradGradGradGradGradGradGradGradGradGradGradGradGradGradGrad
 Berny optimization.
 Using GEDIIS/GDIIS optimizer.
 FormGI is forming the generalized inverse of G from B-inverse, IUseBI=4.
 Internal  Forces:  Max     0.000406489 RMS     0.000249679
 Search for a local minimum.
 Step number   2 out of a maximum of   20
 All quantities printed in internal units (Hartrees-Bohrs-Radians)
 Mixed Optimization -- En-DIIS/RFO-DIIS
 Update second derivatives using D2CorX and points    1    2
 DE= -7.37D-05 DEPred=-7.47D-05 R= 9.87D-01
 TightC=F SS=  1.41D+00  RLast= 1.67D-02 DXNew= 5.0454D-01 5.0194D-02
 Trust test= 9.87D-01 RLast= 1.67D-02 DXMaxT set to 3.00D-01
 The second derivative matrix:
                          R1        R2        A1
           R1           0.56199
           R2          -0.00115   0.54675
           A1          -0.00277   0.02395   0.16319
 ITU=  1  0
 Use linear search instead of GDIIS.
     Eigenvalues ---    0.16168   0.54811   0.56214
 RFO step:  Lambda=-9.46972726D-07 EMin= 1.61679643D-01
 Quartic linear search produced a step of -0.02196.
 Iteration  1 RMS(Cart)=  0.00140729 RMS(Int)=  0.00000112
 Iteration  2 RMS(Cart)=  0.00000095 RMS(Int)=  0.00000000
 ClnCor:  largest displacement from symmetrization is 3.11D-15 for atom     3.
 Variable       Old X    -DE/DX   Delta X   Delta X   Delta X     New X
                                 (Linear)    (Quad)   (Total)
    R1        1.80978  -0.00003  -0.00004   0.00001  -0.00003   1.80975
    R2        1.80948   0.00015   0.00036  -0.00021   0.00015   1.80963
    A1        1.83337   0.00041   0.00005   0.00241   0.00246   1.83584
         Item               Value     Threshold  Converged?
 Maximum Force            0.000406     0.000450     YES
 RMS     Force            0.000250     0.000300     YES
 Maximum Displacement     0.001489     0.001800     YES
 RMS     Displacement     0.001407     0.001200     NO 
 Predicted change in Energy=-5.133062D-07
 GradGradGradGradGradGradGradGradGradGradGradGradGradGradGradGradGradGrad

                          Input orientation:                          
 ---------------------------------------------------------------------
 Center     Atomic      Atomic             Coordinates (Angstroms)
 Number     Number       Type             X           Y           Z
 ---------------------------------------------------------------------
      1          8           0       -1.501106   -0.000030   -0.119896
      2          1           0       -1.878415    0.000195    0.760323
      3          1           0       -0.552851    0.000014    0.013657
 ---------------------------------------------------------------------
                    Distance matrix (angstroms):
                    1          2          3
     1  O    0.000000
     2  H    0.957678   0.000000
     3  H    0.957614   1.521391   0.000000
 Stoichiometry    H2O
 Framework group  CS[SG(H2O)]
 Deg. of freedom     3
 Full point group                 CS      NOp   2
 Largest Abelian subgroup         CS      NOp   2
 Largest concise Abelian subgroup C1      NOp   1
                         Standard orientation:                         
 ---------------------------------------------------------------------
 Center     Atomic      Atomic             Coordinates (Angstroms)
 Number     Number       Type             X           Y           Z
 ---------------------------------------------------------------------
      1          8           0        0.000000    0.116349    0.000000
      2          1           0        0.760695   -0.465450   -0.000000
      3          1           0       -0.760695   -0.465344    0.000000
 ---------------------------------------------------------------------
 Rotational constants (GHZ):         834.2206108         433.2919060         285.1735456
 Standard basis: 6-311++G(d,p) (5D, 7F)
 There are    29 symmetry adapted cartesian basis functions of A'  symmetry.
 There are     8 symmetry adapted cartesian basis functions of A"  symmetry.
 There are    28 symmetry adapted basis functions of A'  symmetry.
 There are     8 symmetry adapted basis functions of A"  symmetry.
    36 basis functions,    54 primitive gaussians,    37 cartesian basis functions
     5 alpha electrons        5 beta electrons
       nuclear repulsion energy         9.1891258957 Hartrees.
 NAtoms=    3 NActive=    3 NUniq=    3 SFac= 1.00D+00 NAtFMM=   60 NAOKFM=F Big=F
 Integral buffers will be    131072 words long.
 Raffenetti 2 integral format.
 Two-electron integral symmetry is turned on.
 Nuclear repulsion after empirical dispersion term =        9.1890983537 Hartrees.
 One-electron integrals computed using PRISM.
 NBasis=    36 RedAO= T EigKep=  3.49D-03  NBF=    28     8
 NBsUse=    36 1.00D-06 EigRej= -1.00D+00 NBFU=    28     8
 Initial guess from the checkpoint file:  "single-wat.chk"
 B after Tr=    -0.000000   -0.000000   -0.000000
         Rot=    1.000000   -0.000000    0.000000   -0.000035 Ang=  -0.00 deg.
 Initial guess orbital symmetries:
       Occupied  (A') (A') (A') (A') (A")
       Virtual   (A') (A') (A') (A') (A") (A') (A') (A') (A') (A')
                 (A') (A") (A') (A') (A") (A') (A") (A') (A') (A')
                 (A') (A') (A") (A") (A') (A') (A') (A") (A') (A')
                 (A')
 Keep R1 ints in memory in symmetry-blocked form, NReq=31579049.
 Requested convergence on RMS density matrix=1.00D-08 within 128 cycles.
 Requested convergence on MAX density matrix=1.00D-06.
 Requested convergence on             energy=1.00D-06.
 No special actions if energy rises.
 SCF Done:  E(RwB97XD) =  -76.4323542119     A.U. after    7 cycles
            NFock=  7  Conv=0.29D-08     -V/T= 2.0028
 Calling FoFJK, ICntrl=      2127 FMM=F ISym2X=1 I1Cent= 0 IOpClX= 0 NMat=1 NMatS=1 NMatT=0.
 ***** Axes restored to original set *****
 -------------------------------------------------------------------
 Center     Atomic                   Forces (Hartrees/Bohr)
 Number     Number              X              Y              Z
 -------------------------------------------------------------------
      1        8          -0.000010658    0.000000024    0.000092915
      2        1           0.000017756   -0.000000020   -0.000077547
      3        1          -0.000007098   -0.000000004   -0.000015367
 -------------------------------------------------------------------
 Cartesian Forces:  Max     0.000092915 RMS     0.000041315

 GradGradGradGradGradGradGradGradGradGradGradGradGradGradGradGradGradGrad
 Berny optimization.
 Using GEDIIS/GDIIS optimizer.
 FormGI is forming the generalized inverse of G from B-inverse, IUseBI=4.
 Internal  Forces:  Max     0.000078269 RMS     0.000047866
 Search for a local minimum.
 Step number   3 out of a maximum of   20
 All quantities printed in internal units (Hartrees-Bohrs-Radians)
 Mixed Optimization -- En-DIIS/RFO-DIIS
 Swapping is turned off.
 Update second derivatives using D2CorX and points    1    2    3
 DE= -5.44D-07 DEPred=-5.13D-07 R= 1.06D+00
 Trust test= 1.06D+00 RLast= 2.47D-03 DXMaxT set to 3.00D-01
 The second derivative matrix:
                          R1        R2        A1
           R1           0.56525
           R2           0.00642   0.55016
           A1           0.02834   0.02988   0.15314
 ITU=  0  1  0
     Eigenvalues ---    0.14905   0.54851   0.57099
 En-DIIS/RFO-DIIS/Sim-DIIS IScMMF=       -3 using points:     3    2
 RFO step:  Lambda=-1.70058670D-08.
 DidBck=F Rises=F RFO-DIIS coefs:    1.08131   -0.08131
 Iteration  1 RMS(Cart)=  0.00010423 RMS(Int)=  0.00000001
 Iteration  2 RMS(Cart)=  0.00000001 RMS(Int)=  0.00000000
 ClnCor:  largest displacement from symmetrization is 2.69D-15 for atom     3.
 Variable       Old X    -DE/DX   Delta X   Delta X   Delta X     New X
                                 (Linear)    (Quad)   (Total)
    R1        1.80975  -0.00008  -0.00000  -0.00015  -0.00015   1.80960
    R2        1.80963  -0.00001   0.00001  -0.00004  -0.00003   1.80960
    A1        1.83584   0.00003   0.00020   0.00000   0.00020   1.83604
         Item               Value     Threshold  Converged?
 Maximum Force            0.000078     0.000450     YES
 RMS     Force            0.000048     0.000300     YES
 Maximum Displacement     0.000136     0.001800     YES
 RMS     Displacement     0.000104     0.001200     YES
 Predicted change in Energy=-8.502933D-09
 Optimization completed.
    -- Stationary point found.
                           ----------------------------
                           !   Optimized Parameters   !
                           ! (Angstroms and Degrees)  !
 --------------------------                            --------------------------
 ! Name  Definition              Value          Derivative Info.                !
 --------------------------------------------------------------------------------
 ! R1    R(1,2)                  0.9577         -DE/DX =   -0.0001              !
 ! R2    R(1,3)                  0.9576         -DE/DX =    0.0                 !
 ! A1    A(2,1,3)              105.1857         -DE/DX =    0.0                 !
 --------------------------------------------------------------------------------
 GradGradGradGradGradGradGradGradGradGradGradGradGradGradGradGradGradGrad

                          Input orientation:                          
 ---------------------------------------------------------------------
 Center     Atomic      Atomic             Coordinates (Angstroms)
 Number     Number       Type             X           Y           Z
 ---------------------------------------------------------------------
      1          8           0       -1.501106   -0.000030   -0.119896
      2          1           0       -1.878415    0.000195    0.760323
      3          1           0       -0.552851    0.000014    0.013657
 ---------------------------------------------------------------------
                    Distance matrix (angstroms):
                    1          2          3
     1  O    0.000000
     2  H    0.957678   0.000000
     3  H    0.957614   1.521391   0.000000
 Stoichiometry    H2O
 Framework group  CS[SG(H2O)]
 Deg. of freedom     3
 Full point group                 CS      NOp   2
 Largest Abelian subgroup         CS      NOp   2
 Largest concise Abelian subgroup C1      NOp   1
                         Standard orientation:                         
 ---------------------------------------------------------------------
 Center     Atomic      Atomic             Coordinates (Angstroms)
 Number     Number       Type             X           Y           Z
 ---------------------------------------------------------------------
      1          8           0        0.000000    0.116349    0.000000
      2          1           0        0.760695   -0.465450   -0.000000
      3          1           0       -0.760695   -0.465344   -0.000000
 ---------------------------------------------------------------------
 Rotational constants (GHZ):         834.2206108         433.2919060         285.1735456

 **********************************************************************

            Population analysis using the SCF Density.

 **********************************************************************

 Orbital symmetries:
       Occupied  (A') (A') (A') (A') (A")
       Virtual   (A') (A') (A') (A') (A") (A') (A') (A') (A') (A')
                 (A') (A") (A') (A') (A") (A') (A") (A') (A') (A')
                 (A') (A') (A") (A") (A') (A') (A') (A") (A') (A')
                 (A')
 The electronic state is 1-A'.
 Alpha  occ. eigenvalues --  -19.25317  -1.12196  -0.62939  -0.48121  -0.40685
 Alpha virt. eigenvalues --    0.03994   0.07516   0.20895   0.23241   0.23270
 Alpha virt. eigenvalues --    0.23297   0.29601   0.30183   0.58109   0.62869
 Alpha virt. eigenvalues --    1.03995   1.07929   1.08814   1.31621   1.33641
 Alpha virt. eigenvalues --    1.44289   1.54742   1.74975   2.07981   2.21866
 Alpha virt. eigenvalues --    2.49001   2.65796   3.18236   3.23271   3.40040
 Alpha virt. eigenvalues --    3.76690   3.98695   5.03881   5.41754   5.73963
 Alpha virt. eigenvalues --   50.00177
          Condensed to atoms (all electrons):
               1          2          3
     1  O    7.865479   0.325176   0.325187
     2  H    0.325176   0.443146  -0.026245
     3  H    0.325187  -0.026245   0.443139
 Mulliken charges:
               1
     1  O   -0.515842
     2  H    0.257923
     3  H    0.257919
 Sum of Mulliken charges =   0.00000
 Mulliken charges with hydrogens summed into heavy atoms:
               1
     1  O    0.000000
 Electronic spatial extent (au):  <R**2>=             19.8120
 Charge=              0.0000 electrons
 Dipole moment (field-independent basis, Debye):
    X=             -0.0000    Y=             -2.1796    Z=             -0.0000  Tot=              2.1796
 Quadrupole moment (field-independent basis, Debye-Ang):
   XX=             -4.3465   YY=             -6.4422   ZZ=             -7.6994
   XY=             -0.0002   XZ=             -0.0000   YZ=              0.0000
 Traceless Quadrupole moment (field-independent basis, Debye-Ang):
   XX=              1.8162   YY=             -0.2795   ZZ=             -1.5367
   XY=             -0.0002   XZ=             -0.0000   YZ=              0.0000
 Octapole moment (field-independent basis, Debye-Ang**2):
  XXX=             -0.0001  YYY=             -1.5427  ZZZ=             -0.0000  XYY=              0.0001
  XXY=             -1.3799  XXZ=             -0.0000  XZZ=             -0.0000  YZZ=             -0.4534
  YYZ=             -0.0000  XYZ=              0.0000
 Hexadecapole moment (field-independent basis, Debye-Ang**3):
 XXXX=             -6.2575 YYYY=             -7.7332 ZZZZ=             -7.3034 XXXY=              0.0000
 XXXZ=             -0.0000 YYYX=             -0.0000 YYYZ=             -0.0000 ZZZX=              0.0000
 ZZZY=             -0.0000 XXYY=             -2.0135 XXZZ=             -2.5587 YYZZ=             -2.5601
 XXYZ=              0.0000 YYXZ=             -0.0000 ZZXY=              0.0000
 N-N= 9.189098353744D+00 E-N=-1.992732658801D+02  KE= 7.621795301925D+01
 Symmetry A'   KE= 7.169752325809D+01
 Symmetry A"   KE= 4.520429761160D+00
 Unable to Open any file for archive entry.
 1\1\GINC-B001\FOpt\RwB97XD\6-311++G(d,p)\H2O1\YUNWENT\15-May-2021\0\\#
  opt freq rwb97xd/6-311++g(d,p) int=ultrafine\\title\\0,1\O,-1.5011064
 793,-0.0000300421,-0.1198958771\H,-1.8784150445,0.0001949538,0.7603231
 136\H,-0.5528514762,0.0000140884,0.0136567636\\Version=ES64L-G16RevC.0
 1\State=1-A'\HF=-76.4323542\RMSD=2.874e-09\RMSF=4.131e-05\Dipole=0.420
 8103,0.0001983,0.7471529\Quadrupole=0.9749678,-1.1424751,0.1675073,-0.
 0001521,-0.6662558,0.0003338\PG=CS [SG(H2O1)]\\@
 The archive entry for this job was punched.


 I do not feel obliged to believe that the same God who
 has endowed us with sense, reason, and intellect has
 intended us to forgo their use.
                   --Galileo Galilei
 Job cpu time:       0 days  0 hours  3 minutes  1.5 seconds.
 Elapsed time:       0 days  0 hours  0 minutes  6.4 seconds.
 File lengths (MBytes):  RWF=      6 Int=      0 D2E=      0 Chk=      1 Scr=      1
 Normal termination of Gaussian 16 at Sat May 15 16:38:32 2021.
 Link1:  Proceeding to internal job step number  2.
 ----------------------------------------------------------------------
 #N Geom=AllCheck Guess=TCheck SCRF=Check GenChk RwB97XD/6-311++G(d,p) 
 Freq
 ----------------------------------------------------------------------
 1/10=4,29=7,30=1,38=1,40=1/1,3;
 2/12=2,40=1/2;
 3/5=4,6=6,7=1111,11=2,14=-4,25=1,30=1,70=2,71=2,74=-58,75=-5,116=1,140=1/1,2,3;
 4/5=101/1;
 5/5=2,38=6,98=1/2;
 8/6=4,10=90,11=11/1;
 11/6=1,8=1,9=11,15=111,16=1/1,2,10;
 10/6=1/2;
 6/7=2,8=2,9=2,10=2,28=1/1;
 7/8=1,10=1,25=1/1,2,3,16;
 1/10=4,30=1/3;
 99//99;
 Structure from the checkpoint file:  "single-wat.chk"
 -----
 title
 -----
 Charge =  0 Multiplicity = 1
 Redundant internal coordinates found in file.  (old form).
 O,0,-1.5011064793,-0.0000300421,-0.1198958771
 H,0,-1.8784150445,0.0001949538,0.7603231136
 H,0,-0.5528514762,0.0000140884,0.0136567636
 Recover connectivity data from disk.

 GradGradGradGradGradGradGradGradGradGradGradGradGradGradGradGradGradGrad
 Berny optimization.
 Initialization pass.
                           ----------------------------
                           !    Initial Parameters    !
                           ! (Angstroms and Degrees)  !
 --------------------------                            --------------------------
 ! Name  Definition              Value          Derivative Info.                !
 --------------------------------------------------------------------------------
 ! R1    R(1,2)                  0.9577         calculate D2E/DX2 analytically  !
 ! R2    R(1,3)                  0.9576         calculate D2E/DX2 analytically  !
 ! A1    A(2,1,3)              105.1857         calculate D2E/DX2 analytically  !
 --------------------------------------------------------------------------------
 Trust Radius=3.00D-01 FncErr=1.00D-07 GrdErr=1.00D-07 EigMax=2.50D+02 EigMin=1.00D-04
 Number of steps in this run=      2 maximum allowed number of steps=      2.
 GradGradGradGradGradGradGradGradGradGradGradGradGradGradGradGradGradGrad

                          Input orientation:                          
 ---------------------------------------------------------------------
 Center     Atomic      Atomic             Coordinates (Angstroms)
 Number     Number       Type             X           Y           Z
 ---------------------------------------------------------------------
      1          8           0       -1.501106   -0.000030   -0.119896
      2          1           0       -1.878415    0.000195    0.760323
      3          1           0       -0.552851    0.000014    0.013657
 ---------------------------------------------------------------------
                    Distance matrix (angstroms):
                    1          2          3
     1  O    0.000000
     2  H    0.957678   0.000000
     3  H    0.957614   1.521391   0.000000
 Stoichiometry    H2O
 Framework group  CS[SG(H2O)]
 Deg. of freedom     3
 Full point group                 CS      NOp   2
 Largest Abelian subgroup         CS      NOp   2
 Largest concise Abelian subgroup C1      NOp   1
                         Standard orientation:                         
 ---------------------------------------------------------------------
 Center     Atomic      Atomic             Coordinates (Angstroms)
 Number     Number       Type             X           Y           Z
 ---------------------------------------------------------------------
      1          8           0        0.000000    0.116349    0.000000
      2          1           0        0.760695   -0.465450   -0.000000
      3          1           0       -0.760695   -0.465344    0.000000
 ---------------------------------------------------------------------
 Rotational constants (GHZ):         834.2206108         433.2919060         285.1735456
 Standard basis: 6-311++G(d,p) (5D, 7F)
 There are    29 symmetry adapted cartesian basis functions of A'  symmetry.
 There are     8 symmetry adapted cartesian basis functions of A"  symmetry.
 There are    28 symmetry adapted basis functions of A'  symmetry.
 There are     8 symmetry adapted basis functions of A"  symmetry.
    36 basis functions,    54 primitive gaussians,    37 cartesian basis functions
     5 alpha electrons        5 beta electrons
       nuclear repulsion energy         9.1891258957 Hartrees.
 NAtoms=    3 NActive=    3 NUniq=    3 SFac= 1.00D+00 NAtFMM=   60 NAOKFM=F Big=F
 Integral buffers will be    131072 words long.
 Raffenetti 2 integral format.
 Two-electron integral symmetry is turned on.
 Nuclear repulsion after empirical dispersion term =        9.1890983537 Hartrees.
 One-electron integrals computed using PRISM.
 NBasis=    36 RedAO= T EigKep=  3.49D-03  NBF=    28     8
 NBsUse=    36 1.00D-06 EigRej= -1.00D+00 NBFU=    28     8
 Initial guess from the checkpoint file:  "single-wat.chk"
 B after Tr=     0.000000    0.000000    0.000000
         Rot=    1.000000   -0.000000    0.000000   -0.000000 Ang=   0.00 deg.
 Initial guess orbital symmetries:
       Occupied  (A') (A') (A') (A') (A")
       Virtual   (A') (A') (A') (A') (A") (A') (A') (A') (A') (A')
                 (A') (A") (A') (A') (A") (A') (A") (A') (A') (A')
                 (A') (A') (A") (A") (A') (A') (A') (A") (A') (A')
                 (A')
 Keep R1 ints in memory in symmetry-blocked form, NReq=31579049.
 Requested convergence on RMS density matrix=1.00D-08 within 128 cycles.
 Requested convergence on MAX density matrix=1.00D-06.
 Requested convergence on             energy=1.00D-06.
 No special actions if energy rises.
 SCF Done:  E(RwB97XD) =  -76.4323542119     A.U. after    1 cycles
            NFock=  1  Conv=0.74D-09     -V/T= 2.0028
 DoSCS=F DFT=T ScalE2(SS,OS)=  1.000000  1.000000
 Range of M.O.s used for correlation:     1    36
 NBasis=    36 NAE=     5 NBE=     5 NFC=     0 NFV=     0
 NROrb=     36 NOA=     5 NOB=     5 NVA=    31 NVB=    31
 Symmetrizing basis deriv contribution to polar:
 IMax=3 JMax=2 DiffMx= 0.00D+00
 G2DrvN: will do     4 centers at a time, making    1 passes.
 Calling FoFCou, ICntrl=  3107 FMM=F I1Cent=   0 AccDes= 0.00D+00.
 End of G2Drv F.D. properties file   721 does not exist.
 End of G2Drv F.D. properties file   722 does not exist.
 End of G2Drv F.D. properties file   788 does not exist.
          IDoAtm=111
          Differentiating once with respect to electric field.
                with respect to dipole field.
          Differentiating once with respect to nuclear coordinates.
 Keep R1 ints in memory in symmetry-blocked form, NReq=31455588.
          There are    12 degrees of freedom in the 1st order CPHF.  IDoFFX=6 NUNeed=     3.
      9 vectors produced by pass  0 Test12= 1.29D-15 8.33D-09 XBig12= 2.21D+00 9.03D-01.
 AX will form     9 AO Fock derivatives at one time.
      9 vectors produced by pass  1 Test12= 1.29D-15 8.33D-09 XBig12= 2.57D-01 1.95D-01.
      9 vectors produced by pass  2 Test12= 1.29D-15 8.33D-09 XBig12= 7.06D-03 3.06D-02.
      9 vectors produced by pass  3 Test12= 1.29D-15 8.33D-09 XBig12= 4.75D-05 3.21D-03.
      9 vectors produced by pass  4 Test12= 1.29D-15 8.33D-09 XBig12= 3.09D-07 2.40D-04.
      9 vectors produced by pass  5 Test12= 1.29D-15 8.33D-09 XBig12= 2.19D-09 1.42D-05.
      5 vectors produced by pass  6 Test12= 1.29D-15 8.33D-09 XBig12= 9.85D-12 1.38D-06.
      2 vectors produced by pass  7 Test12= 1.29D-15 8.33D-09 XBig12= 3.87D-14 6.34D-08.
 InvSVY:  IOpt=1 It=  1 EMax= 8.88D-16
 Solved reduced A of dimension    61 with     9 vectors.
 Isotropic polarizability for W=    0.000000        7.12 Bohr**3.
 End of Minotr F.D. properties file   721 does not exist.
 End of Minotr F.D. properties file   722 does not exist.
 End of Minotr F.D. properties file   788 does not exist.

 **********************************************************************

            Population analysis using the SCF Density.

 **********************************************************************

 Orbital symmetries:
       Occupied  (A') (A') (A') (A') (A")
       Virtual   (A') (A') (A') (A') (A") (A') (A') (A') (A') (A')
                 (A') (A") (A') (A') (A") (A') (A") (A') (A') (A')
                 (A') (A') (A") (A") (A') (A') (A') (A") (A') (A')
                 (A')
 The electronic state is 1-A'.
 Alpha  occ. eigenvalues --  -19.25317  -1.12196  -0.62939  -0.48121  -0.40685
 Alpha virt. eigenvalues --    0.03994   0.07516   0.20895   0.23241   0.23270
 Alpha virt. eigenvalues --    0.23297   0.29601   0.30183   0.58109   0.62869
 Alpha virt. eigenvalues --    1.03995   1.07929   1.08814   1.31621   1.33641
 Alpha virt. eigenvalues --    1.44289   1.54742   1.74975   2.07981   2.21866
 Alpha virt. eigenvalues --    2.49001   2.65796   3.18236   3.23271   3.40040
 Alpha virt. eigenvalues --    3.76690   3.98695   5.03881   5.41754   5.73963
 Alpha virt. eigenvalues --   50.00177
          Condensed to atoms (all electrons):
               1          2          3
     1  O    7.865479   0.325176   0.325187
     2  H    0.325176   0.443146  -0.026245
     3  H    0.325187  -0.026245   0.443139
 Mulliken charges:
               1
     1  O   -0.515842
     2  H    0.257923
     3  H    0.257919
 Sum of Mulliken charges =  -0.00000
 Mulliken charges with hydrogens summed into heavy atoms:
               1
     1  O   -0.000000
 APT charges:
               1
     1  O   -0.565772
     2  H    0.282885
     3  H    0.282887
 Sum of APT charges =  -0.00000
 APT charges with hydrogens summed into heavy atoms:
               1
     1  O   -0.000000
 Electronic spatial extent (au):  <R**2>=             19.8120
 Charge=              0.0000 electrons
 Dipole moment (field-independent basis, Debye):
    X=             -0.0000    Y=             -2.1796    Z=             -0.0000  Tot=              2.1796
 Quadrupole moment (field-independent basis, Debye-Ang):
   XX=             -4.3465   YY=             -6.4422   ZZ=             -7.6994
   XY=             -0.0002   XZ=              0.0000   YZ=             -0.0000
 Traceless Quadrupole moment (field-independent basis, Debye-Ang):
   XX=              1.8162   YY=             -0.2795   ZZ=             -1.5367
   XY=             -0.0002   XZ=              0.0000   YZ=             -0.0000
 Octapole moment (field-independent basis, Debye-Ang**2):
  XXX=             -0.0001  YYY=             -1.5427  ZZZ=             -0.0000  XYY=              0.0001
  XXY=             -1.3799  XXZ=             -0.0000  XZZ=             -0.0000  YZZ=             -0.4534
  YYZ=             -0.0000  XYZ=              0.0000
 Hexadecapole moment (field-independent basis, Debye-Ang**3):
 XXXX=             -6.2575 YYYY=             -7.7332 ZZZZ=             -7.3034 XXXY=              0.0000
 XXXZ=              0.0000 YYYX=             -0.0000 YYYZ=             -0.0000 ZZZX=              0.0000
 ZZZY=             -0.0000 XXYY=             -2.0135 XXZZ=             -2.5587 YYZZ=             -2.5601
 XXYZ=             -0.0000 YYXZ=              0.0000 ZZXY=              0.0000
 N-N= 9.189098353744D+00 E-N=-1.992732658602D+02  KE= 7.621795300703D+01
 Symmetry A'   KE= 7.169752325702D+01
 Symmetry A"   KE= 4.520429750015D+00
  Exact polarizability:       8.089      -0.000       6.631       0.000       0.000       6.655
 Approx polarizability:       7.809      -0.000       6.070      -0.000       0.000       5.289
 Calling FoFJK, ICntrl=    100127 FMM=F ISym2X=1 I1Cent= 0 IOpClX= 0 NMat=1 NMatS=1 NMatT=0.
 Full mass-weighted force constant matrix:
 Low frequencies ---   -0.0013   -0.0010    0.0006   45.8532   48.4456   58.2333
 Low frequencies --- 1610.2990 3898.8991 4007.9506
 Diagonal vibrational polarizability:
        0.1042903       0.7339013       0.0000000
 Harmonic frequencies (cm**-1), IR intensities (KM/Mole), Raman scattering
 activities (A**4/AMU), depolarization ratios for plane and unpolarized
 incident light, reduced masses (AMU), force constants (mDyne/A),
 and normal coordinates:
                      1                      2                      3
                     A'                     A'                     A'
 Frequencies --   1610.2990              3898.8991              4007.9506
 Red. masses --      1.0827                 1.0451                 1.0825
 Frc consts  --      1.6542                 9.3605                10.2456
 IR Inten    --     68.6013                12.3976                62.2515
  Atom  AN      X      Y      Z        X      Y      Z        X      Y      Z
     1   8     0.00  -0.07  -0.00    -0.00   0.05   0.00    -0.07  -0.00   0.00
     2   1     0.43   0.56   0.00     0.59  -0.40  -0.00     0.56  -0.43  -0.00
     3   1    -0.43   0.56   0.00    -0.58  -0.39   0.00     0.56   0.43   0.00

 -------------------
 - Thermochemistry -
 -------------------
 Temperature   298.150 Kelvin.  Pressure   1.00000 Atm.
 Atom     1 has atomic number  8 and mass  15.99491
 Atom     2 has atomic number  1 and mass   1.00783
 Atom     3 has atomic number  1 and mass   1.00783
 Molecular mass:    18.01056 amu.
 Principal axes and moments of inertia in atomic units:
                           1         2         3
     Eigenvalues --     2.16339   4.16519   6.32857
           X            1.00000   0.00015   0.00000
           Y           -0.00015   1.00000   0.00000
           Z            0.00000  -0.00000   1.00000
 This molecule is an asymmetric top.
 Rotational symmetry number  1.
 Rotational temperatures (Kelvin)     40.03628    20.79473    13.68617
 Rotational constants (GHZ):         834.22061   433.29191   285.17355
 Zero-point vibrational energy      56925.2 (Joules/Mol)
                                   13.60545 (Kcal/Mol)
 Vibrational temperatures:   2316.86  5609.65  5766.55
          (Kelvin)
 
 Zero-point correction=                           0.021682 (Hartree/Particle)
 Thermal correction to Energy=                    0.024517
 Thermal correction to Enthalpy=                  0.025461
 Thermal correction to Gibbs Free Energy=         0.003398
 Sum of electronic and zero-point Energies=            -76.410673
 Sum of electronic and thermal Energies=               -76.407837
 Sum of electronic and thermal Enthalpies=             -76.406893
 Sum of electronic and thermal Free Energies=          -76.428956
 
                     E (Thermal)             CV                S
                      KCal/Mol        Cal/Mol-Kelvin    Cal/Mol-Kelvin
 Total                   15.385              6.012             46.436
 Electronic               0.000              0.000              0.000
 Translational            0.889              2.981             34.608
 Rotational               0.889              2.981             11.821
 Vibrational             13.607              0.051              0.007
                       Q            Log10(Q)             Ln(Q)
 Total Bot       0.273494D-01         -1.563052         -3.599060
 Total V=0       0.256928D+09          8.409811         19.364305
 Vib (Bot)       0.106493D-09         -9.972679        -22.962942
 Vib (V=0)       0.100042D+01          0.000183          0.000422
 Electronic      0.100000D+01          0.000000          0.000000
 Translational   0.300431D+07          6.477745         14.915559
 Rotational      0.854836D+02          1.931883          4.448324
 ***** Axes restored to original set *****
 -------------------------------------------------------------------
 Center     Atomic                   Forces (Hartrees/Bohr)
 Number     Number              X              Y              Z
 -------------------------------------------------------------------
      1        8          -0.000010655    0.000000024    0.000092913
      2        1           0.000017756   -0.000000020   -0.000077545
      3        1          -0.000007100   -0.000000004   -0.000015368
 -------------------------------------------------------------------
 Cartesian Forces:  Max     0.000092913 RMS     0.000041314
 FormGI is forming the generalized inverse of G from B-inverse, IUseBI=4.

 GradGradGradGradGradGradGradGradGradGradGradGradGradGradGradGradGradGrad
 Berny optimization.
 Internal  Forces:  Max     0.000078267 RMS     0.000047865
 Search for a local minimum.
 Step number   1 out of a maximum of    2
 All quantities printed in internal units (Hartrees-Bohrs-Radians)
 Second derivative matrix not updated -- analytic derivatives used.
 The second derivative matrix:
                          R1        R2        A1
           R1           0.56157
           R2          -0.00587   0.56182
           A1           0.02901   0.02901   0.15301
 ITU=  0
     Eigenvalues ---    0.14887   0.55997   0.56757
 Angle between quadratic step and forces=  34.96 degrees.
 Linear search not attempted -- first point.
 Iteration  1 RMS(Cart)=  0.00010495 RMS(Int)=  0.00000001
 Iteration  2 RMS(Cart)=  0.00000001 RMS(Int)=  0.00000000
 ClnCor:  largest displacement from symmetrization is 2.00D-15 for atom     3.
 Variable       Old X    -DE/DX   Delta X   Delta X   Delta X     New X
                                 (Linear)    (Quad)   (Total)
    R1        1.80975  -0.00008   0.00000  -0.00015  -0.00015   1.80960
    R2        1.80963  -0.00001   0.00000  -0.00003  -0.00003   1.80960
    A1        1.83584   0.00003   0.00000   0.00020   0.00020   1.83604
         Item               Value     Threshold  Converged?
 Maximum Force            0.000078     0.000450     YES
 RMS     Force            0.000048     0.000300     YES
 Maximum Displacement     0.000137     0.001800     YES
 RMS     Displacement     0.000105     0.001200     YES
 Predicted change in Energy=-8.607011D-09
 Optimization completed.
    -- Stationary point found.
                           ----------------------------
                           !   Optimized Parameters   !
                           ! (Angstroms and Degrees)  !
 --------------------------                            --------------------------
 ! Name  Definition              Value          Derivative Info.                !
 --------------------------------------------------------------------------------
 ! R1    R(1,2)                  0.9577         -DE/DX =   -0.0001              !
 ! R2    R(1,3)                  0.9576         -DE/DX =    0.0                 !
 ! A1    A(2,1,3)              105.1857         -DE/DX =    0.0                 !
 --------------------------------------------------------------------------------
 GradGradGradGradGradGradGradGradGradGradGradGradGradGradGradGradGradGrad


 ----------------------------------------------------------------------

 Electric dipole moment (input orientation):
 (Debye = 10**-18 statcoulomb cm , SI units = C m)
                  (au)            (Debye)         (10**-30 SI)
   Tot        0.857507D+00      0.217957D+01      0.727025D+01
   x          0.420810D+00      0.106959D+01      0.356778D+01
   y          0.198347D-03      0.504148D-03      0.168166D-02
   z          0.747153D+00      0.189907D+01      0.633463D+01

 Dipole polarizability, Alpha (input orientation).
 (esu units = cm**3 , SI units = C**2 m**2 J**-1)
 Alpha(0;0):
               (au)            (10**-24 esu)      (10**-40 SI)
   iso        0.712496D+01      0.105581D+01      0.117475D+01
   aniso      0.144546D+01      0.214195D+00      0.238324D+00
   xx         0.773722D+01      0.114654D+01      0.127570D+01
   yx        -0.151221D-03     -0.224086D-04     -0.249330D-04
   yy         0.665507D+01      0.986179D+00      0.109727D+01
   zx        -0.623285D+00     -0.923614D-01     -0.102766D+00
   zy         0.789214D-04      0.116949D-04      0.130124D-04
   zz         0.698260D+01      0.103471D+01      0.115127D+01

 ----------------------------------------------------------------------

 Dipole orientation:
     8         -2.36043542          0.00016770         -1.58947567
     1         -3.79796469          0.00025139         -0.49006585
     1         -0.92295308          0.00008403         -0.49020492

 Electric dipole moment (dipole orientation):
 (Debye = 10**-18 statcoulomb cm , SI units = C m)
                  (au)            (Debye)         (10**-30 SI)
   Tot        0.857507D+00      0.217957D+01      0.727025D+01
   x          0.000000D+00      0.000000D+00      0.000000D+00
   y          0.000000D+00      0.000000D+00      0.000000D+00
   z          0.857507D+00      0.217957D+01      0.727025D+01

 Dipole polarizability, Alpha (dipole orientation).
 (esu units = cm**3 , SI units = C**2 m**2 J**-1)
 Alpha(0;0):
               (au)            (10**-24 esu)      (10**-40 SI)
   iso        0.712496D+01      0.105581D+01      0.117475D+01
   aniso      0.144546D+01      0.214195D+00      0.238324D+00
   xx         0.808850D+01      0.119859D+01      0.133361D+01
   yx        -0.834430D-04     -0.123650D-04     -0.137579D-04
   yy         0.665507D+01      0.986179D+00      0.109727D+01
   zx        -0.418944D-03     -0.620811D-04     -0.690745D-04
   zy         0.000000D+00      0.000000D+00      0.000000D+00
   zz         0.663131D+01      0.982659D+00      0.109336D+01

 ----------------------------------------------------------------------
 Unable to Open any file for archive entry.
 1\1\GINC-B001\Freq\RwB97XD\6-311++G(d,p)\H2O1\YUNWENT\15-May-2021\0\\#
 N Geom=AllCheck Guess=TCheck SCRF=Check GenChk RwB97XD/6-311++G(d,p) F
 req\\title\\0,1\O,-1.5011064793,-0.0000300421,-0.1198958771\H,-1.87841
 50445,0.0001949538,0.7603231136\H,-0.5528514762,0.0000140884,0.0136567
 636\\Version=ES64L-G16RevC.01\State=1-A'\HF=-76.4323542\RMSD=7.425e-10
 \RMSF=4.131e-05\ZeroPoint=0.0216817\Thermal=0.0245173\ETot=-76.4078369
 \HTot=-76.4068927\GTot=-76.428956\Dipole=0.4208103,0.0001983,0.7471529
 \DipoleDeriv=-0.5013399,0.0000211,0.0704412,0.0000211,-0.7800302,0.000
 0953,0.0704082,0.0000953,-0.4159464,0.3089524,-0.0000068,-0.0232249,0.
 0000053,0.3900087,-0.0000627,0.0234434,-0.0000622,0.149695,0.1923874,-
 0.0000142,-0.0472162,-0.0000264,0.3900215,-0.0000326,-0.0938516,-0.000
 0331,0.2662514\Polar=7.7372195,-0.0001512,6.6550685,-0.6232855,0.00007
 89,6.9825956\Quadrupole=0.9749678,-1.1424751,0.1675073,-0.0001521,-0.6
 662558,0.0003338\PG=CS [SG(H2O1)]\NImag=0\\0.65621877,-0.00002125,0.00
 021068,-0.10684514,0.00013568,0.52638076,-0.11915856,0.00003792,0.1504
 6172,0.13831948,0.00005328,-0.00012449,-0.00012114,-0.00004994,0.00011
 730,0.20955857,-0.00012055,-0.47203283,-0.19747360,0.00012015,0.470028
 36,-0.53706021,-0.00001667,-0.04361658,-0.01916092,-0.00000333,-0.0120
 8497,0.55622113,-0.00003203,-0.00008619,-0.00001453,0.00001203,0.00000
 720,0.00000040,0.00002000,0.00007899,-0.10271343,-0.00001512,-0.054347
 93,0.04701187,0.00000099,0.00200447,0.05570155,0.00001414,0.05234345\\
 0.00001066,-0.00000002,-0.00009291,-0.00001776,0.00000002,0.00007754,0
 .00000710,0.,0.00001537\\\@
 The archive entry for this job was punched.


 OF ALL THE WONDERS OF THE UNIVERSE, THE GREATEST IS MAN.

                                    -- ARISTOTLE
 Job cpu time:       0 days  0 hours  2 minutes  9.8 seconds.
 Elapsed time:       0 days  0 hours  0 minutes  4.4 seconds.
 File lengths (MBytes):  RWF=      6 Int=      0 D2E=      0 Chk=      1 Scr=      1
 Normal termination of Gaussian 16 at Sat May 15 16:38:37 2021.
